                               Psi4 1.3.2 release

  ==> Input File <==

--------------------------------------------------------------------------
molecule {
0 1
 N   -2.404600    0.000000    0.000500
 C   -0.994100   -0.000200   -0.000300
 C   -0.296900    1.207900   -0.000300
 C   -0.296500   -1.208000   -0.000300
 C    1.098000    1.208000    0.000100
 C    1.098400   -1.207800    0.000100
 C    1.795700    0.000200    0.000300
 H   -0.828900    2.155800   -0.000300
 H   -0.828300   -2.156100   -0.000200
 H    1.641100    2.148600    0.000200
 H    1.641700   -2.148200    0.000200
 H    2.881800    0.000400    0.000600
 H   -2.910900   -0.875500   -0.000500
 H   -2.910700    0.875600   -0.000600
}
memory 5GB
set_num_threads(4)
psi4_io.set_default_path("/scratch/bdw2292")
optimize('mp2/6-31G*')
clean()
--------------------------------------------------------------------------

    Molecular point group: c1
  Charge       = 0
  Multiplicity = 1
  Basis Set: 6-31G*
    Blend: 6-31G*
  Basis Set: (6-31G* AUX)
    Blend: CC-PVDZ-JKFIT
  @DF-RHF Final Energy:  -285.72470545438352
    Total Energy =                       -285.7247054543835247
  Basis Set: (6-31G* AUX)
    Blend: CC-PVDZ-RI
    Molecular point group: c1
  Basis Set: 6-31G*
    Blend: 6-31G*
  Basis Set: (6-31G* AUX)
    Blend: CC-PVDZ-JKFIT
  Basis Set: (6-31G* AUX)
    Blend: CC-PVDZ-JKFIT
	 Reference Energy          =    -285.7247054543835247 [Eh]
	 Singles Energy            =      -0.0000000000000000 [Eh]
	 Same-Spin Energy          =      -0.2522937769592561 [Eh]
	 Opposite-Spin Energy      =      -0.7011018965203125 [Eh]
	 Correlation Energy        =      -0.9533956734795687 [Eh]
	 Total Energy              =    -286.6781011278631013 [Eh]
	 SCS Total Energy          =    -286.6501256558609612 [Eh]
  @DF-RHF Final Energy:  -285.72630565636871
    Total Energy =                       -285.7263056563687087
  @DF-RHF Final Energy:  -285.72638404134256
    Total Energy =                       -285.7263840413425555
  @DF-RHF Final Energy:  -285.72637622289005
    Total Energy =                       -285.7263762228900532
  @DF-RHF Final Energy:  -285.72000193865244
    Total Energy =                       -285.7200019386524446
  @DF-RHF Final Energy:  -285.45102152756630
    Total Energy =                       -285.4510215275662972
  @DF-RHF Final Energy:  -285.71648190403067
    Total Energy =                       -285.7164819040306725
  @DF-RHF Final Energy:  -285.72763462123550
    Total Energy =                       -285.7276346212354952
  @DF-RHF Final Energy:  -285.72777783129629
    Total Energy =                       -285.7277778312962937
  @DF-RHF Final Energy:  -285.72831505563681
    Total Energy =                       -285.7283150556368128
  @DF-RHF Final Energy:  -285.72869889661524
    Total Energy =                       -285.7286988966152421
  @DF-RHF Final Energy:  -285.72879188085898
    Total Energy =                       -285.7287918808589779
  Charge       = 0
  Multiplicity = 1
  Basis Set: 6-31G*
    Blend: 6-31G*
  Basis Set: (6-31G* AUX)
    Blend: CC-PVDZ-JKFIT

    Orbital Energies [Eh]
    ---------------------

    Doubly Occupied:

       1A    -15.565660     2A    -11.274115     3A    -11.233461
       4A    -11.233424     5A    -11.222406     6A    -11.222392
       7A    -11.218525     8A     -1.216925     9A     -1.120042
      10A     -1.006003    11A     -0.979762    12A     -0.825538
      13A     -0.805431    14A     -0.697250    15A     -0.675711
      16A     -0.649098    17A     -0.592091    18A     -0.585599
      19A     -0.575400    20A     -0.527338    21A     -0.500332
      22A     -0.483722    23A     -0.442448    24A     -0.330026
      25A     -0.289960

  @DF-RHF Final Energy:  -285.72877589044288

   => Energetics <=

    Nuclear Repulsion Energy =            271.2300712943888357
    One-Electron Energy =                -923.3723779375013692
    Two-Electron Energy =                 366.4135307526696579
    Total Energy =                       -285.7287758904428756

  Dipole Moment: [D]
     X:    -0.8021      Y:     0.0005      Z:    -1.3509     Total:     1.5711

  Basis Set: (6-31G* AUX)
    Blend: CC-PVDZ-RI
    Molecular point group: c1
  Basis Set: 6-31G*
    Blend: 6-31G*
  Basis Set: (6-31G* AUX)
    Blend: CC-PVDZ-JKFIT
  Basis Set: (6-31G* AUX)
    Blend: CC-PVDZ-JKFIT
	 Reference Energy          =    -285.7287758904428756 [Eh]
	 Singles Energy            =      -0.0000000000000000 [Eh]
	 Same-Spin Energy          =      -0.2523622121165447 [Eh]
	 Opposite-Spin Energy      =      -0.7013895131816112 [Eh]
	 Correlation Energy        =      -0.9537517252981560 [Eh]
	 Total Energy              =    -286.6825276157410372 [Eh]

	 ================> DF-SCS-MP2 Energies <==================
	-----------------------------------------------------------
	 SCS Same-Spin Scale       =       0.3333333333333333 [-]
	 SCS Opposite-Spin Scale   =       1.2000000000000000 [-]
	 SCS Same-Spin Energy      =      -0.0841207373721816 [Eh]
	 SCS Opposite-Spin Energy  =      -0.8416674158179335 [Eh]
	 SCS Correlation Energy    =      -0.9257881531901151 [Eh]
	 SCS Total Energy          =    -286.6545640436330018 [Eh]
	-----------------------------------------------------------

  -Total Gradient:
     Atom            X                  Y                   Z
    ------   -----------------  -----------------  -----------------
       1        0.000206564531     0.000000963274     0.000098194661
       2       -0.000089054987     0.000002161815     0.000022021046
       3       -0.000061591849     0.000080482717    -0.000028471410
       4       -0.000060311365    -0.000082057454    -0.000028178425
       5        0.000011728776    -0.000032341085     0.000033389894
       6        0.000013365606     0.000033961458     0.000032945887
       7       -0.000040536761    -0.000002029977    -0.000034545954
       8        0.000017912957    -0.000027893820     0.000006076537
       9        0.000018828918     0.000028908718     0.000006239993
      10        0.000020768337     0.000011632966    -0.000011246430
      11        0.000021806734    -0.000012367784    -0.000011263606
      12       -0.000003841926    -0.000000523162     0.000013115284
      13       -0.000028308704    -0.000194329503    -0.000049624778
      14       -0.000027330269     0.000193431839    -0.000048652698

  **** Optimization is complete! (in 13 steps) ****
    Final optimized geometry and variables:
    Molecular point group: c1

    Geometry (in Angstrom), charge = 0, multiplicity = 1:

    N           -2.342609600096    -0.000172985414     0.116760776712
    C           -0.941853023961    -0.000053206950     0.010372534822
    C           -0.229077621067     1.205805170517     0.006060481520
    C           -0.228944415976    -1.205833095275     0.005109167269
    C            1.163017319316     1.202561381775    -0.028924686120
    C            1.163149970914    -1.202415334316    -0.029880864536
    C            1.869456049885     0.000115804883    -0.043523461253
    H           -0.772141806497     2.149031967992     0.022419477899
    H           -0.771906585978    -2.149128952671     0.020730288082
    H            1.697629260576     2.149341125360    -0.038364124565
    H            1.697866970046    -2.149129806757    -0.040070299297
    H            2.955347462872     0.000182892076    -0.071189532600
    H           -2.773086169523    -0.830680363620    -0.277326005361
    H           -2.773166608616     0.830634847944    -0.276600008802

*** Psi4 exiting successfully. Buy a developer a beer!
