                               Psi4 1.3.2 release

  ==> Input File <==

--------------------------------------------------------------------------
molecule {
0 1
N           -2.342609600096    -0.000172985414     0.116760776712
C           -0.941853023961    -0.000053206950     0.010372534822
C           -0.229077621067     1.205805170517     0.006060481520
C           -0.228944415976    -1.205833095275     0.005109167269
C            1.163017319316     1.202561381775    -0.028924686120
C            1.163149970914    -1.202415334316    -0.029880864536
C            1.869456049885     0.000115804883    -0.043523461253
H           -0.772141806497     2.149031967992     0.022419477899
H           -0.771906585978    -2.149128952671     0.020730288082
H            1.697629260576     2.149341125360    -0.038364124565
H            1.697866970046    -2.149129806757    -0.040070299297
H            2.955347462872     0.000182892076    -0.071189532600
H           -2.773086169523    -0.830680363620    -0.277326005361
H           -2.773166608616     0.830634847944    -0.276600008802
}
memory 5GB
set_num_threads(4)
psi4_io.set_default_path("/scratch/bdw2292")
set freeze_core True
E, wfn = energy('mp2/6-311++G(2d,2p)',return_wfn=True)
oeprop(wfn,"DIPOLE","GRID_ESP")
clean()
--------------------------------------------------------------------------

    Molecular point group: c1

    Geometry (in Angstrom), charge = 0, multiplicity = 1:

       Center              X                  Y                   Z               Mass
    ------------   -----------------  -----------------  -----------------  -----------------
         N           -2.342609600096    -0.000172985414     0.116760776712    14.003074004430
         C           -0.941853023961    -0.000053206950     0.010372534822    12.000000000000
         C           -0.229077621067     1.205805170517     0.006060481520    12.000000000000
         C           -0.228944415976    -1.205833095275     0.005109167269    12.000000000000
         C            1.163017319316     1.202561381775    -0.028924686120    12.000000000000
         C            1.163149970914    -1.202415334316    -0.029880864536    12.000000000000
         C            1.869456049885     0.000115804883    -0.043523461253    12.000000000000
         H           -0.772141806497     2.149031967992     0.022419477899     1.007825032230
         H           -0.771906585978    -2.149128952671     0.020730288082     1.007825032230
         H            1.697629260576     2.149341125360    -0.038364124565     1.007825032230
         H            1.697866970046    -2.149129806757    -0.040070299297     1.007825032230
         H            2.955347462872     0.000182892076    -0.071189532600     1.007825032230
         H           -2.773086169523    -0.830680363620    -0.277326005361     1.007825032230
         H           -2.773166608616     0.830634847944    -0.276600008802     1.007825032230

  Charge       = 0
  Multiplicity = 1
  Basis Set: 6-311++G(2D,2P)
    Blend: 6-311++G(2D,2P)
  Basis Set: (6-311++G(2D,2P) AUX)
    Blend: AUG-CC-PVTZ-JKFIT

    Orbital Energies [Eh]
    ---------------------

    Doubly Occupied:

       1A    -15.566449     2A    -11.278434     3A    -11.236335
       4A    -11.236299     5A    -11.225375     6A    -11.225357
       7A    -11.221063     8A     -1.223828     9A     -1.127215
      10A     -1.012685    11A     -0.986428    12A     -0.832321
      13A     -0.812328    14A     -0.704263    15A     -0.682556
      16A     -0.654843    17A     -0.598714    18A     -0.593336
      19A     -0.581870    20A     -0.533996    21A     -0.507256
      22A     -0.490334    23A     -0.449398    24A     -0.336057
      25A     -0.296962

  @DF-RHF Final Energy:  -285.81658188342237

   => Energetics <=

    Nuclear Repulsion Energy =            271.2300712943817302
    One-Electron Energy =                -923.2659035209976537
    Two-Electron Energy =                 366.2192503431934938
    Total Energy =                       -285.8165818834223728
  Basis Set: (6-311++G(2D,2P) AUX)
    Blend: AUG-CC-PVTZ-RI
	 Reference Energy          =    -285.8165818834223728 [Eh]
	 Singles Energy            =      -0.0000000000000000 [Eh]
	 Same-Spin Energy          =      -0.2783809837106243 [Eh]
	 Opposite-Spin Energy      =      -0.7886929657252398 [Eh]
	 Correlation Energy        =      -1.0670739494358641 [Eh]
	 Total Energy              =    -286.8836558328582100 [Eh]

	 ================> DF-SCS-MP2 Energies <==================
	-----------------------------------------------------------
	 SCS Same-Spin Scale       =       0.3333333333333333 [-]
	 SCS Opposite-Spin Scale   =       1.2000000000000000 [-]
	 SCS Same-Spin Energy      =      -0.0927936612368747 [Eh]
	 SCS Opposite-Spin Energy  =      -0.9464315588702877 [Eh]
	 SCS Correlation Energy    =      -1.0392252201071626 [Eh]
	 SCS Total Energy          =    -286.8558071035295143 [Eh]
	-----------------------------------------------------------

  Dipole Moment: [D]
     X:    -0.9110      Y:     0.0004      Z:    -1.1217     Total:     1.4451

*** Psi4 exiting successfully. Buy a developer a beer!
