                               Psi4 1.3.2 release

  ==> Input File <==

--------------------------------------------------------------------------
molecule {
0 1
N           -2.342609600096    -0.000172985414     0.116760776712
C           -0.941853023961    -0.000053206950     0.010372534822
C           -0.229077621067     1.205805170517     0.006060481520
C           -0.228944415976    -1.205833095275     0.005109167269
C            1.163017319316     1.202561381775    -0.028924686120
C            1.163149970914    -1.202415334316    -0.029880864536
C            1.869456049885     0.000115804883    -0.043523461253
H           -0.772141806497     2.149031967992     0.022419477899
H           -0.771906585978    -2.149128952671     0.020730288082
H            1.697629260576     2.149341125360    -0.038364124565
H            1.697866970046    -2.149129806757    -0.040070299297
H            2.955347462872     0.000182892076    -0.071189532600
H           -2.773086169523    -0.830680363620    -0.277326005361
H           -2.773166608616     0.830634847944    -0.276600008802
}
memory 5GB
set_num_threads(4)
psi4_io.set_default_path("/scratch/bdw2292")
set freeze_core True
E, wfn = energy('mp2/6-311G**',return_wfn=True)
gdma(wfn)
fchk(wfn, "aniline-dma.fchk")
clean()
--------------------------------------------------------------------------

    Molecular point group: c1

    Geometry (in Angstrom), charge = 0, multiplicity = 1:

       Center              X                  Y                   Z               Mass
    ------------   -----------------  -----------------  -----------------  -----------------
         N           -2.342609600096    -0.000172985414     0.116760776712    14.003074004430
         C           -0.941853023961    -0.000053206950     0.010372534822    12.000000000000
         C           -0.229077621067     1.205805170517     0.006060481520    12.000000000000
         C           -0.228944415976    -1.205833095275     0.005109167269    12.000000000000
         C            1.163017319316     1.202561381775    -0.028924686120    12.000000000000
         C            1.163149970914    -1.202415334316    -0.029880864536    12.000000000000
         C            1.869456049885     0.000115804883    -0.043523461253    12.000000000000
         H           -0.772141806497     2.149031967992     0.022419477899     1.007825032230
         H           -0.771906585978    -2.149128952671     0.020730288082     1.007825032230
         H            1.697629260576     2.149341125360    -0.038364124565     1.007825032230
         H            1.697866970046    -2.149129806757    -0.040070299297     1.007825032230
         H            2.955347462872     0.000182892076    -0.071189532600     1.007825032230
         H           -2.773086169523    -0.830680363620    -0.277326005361     1.007825032230
         H           -2.773166608616     0.830634847944    -0.276600008802     1.007825032230

  Charge       = 0
  Multiplicity = 1
  Basis Set: 6-311G**
    Blend: 6-311G**
  Basis Set: (6-311G** AUX)
    Blend: CC-PVTZ-JKFIT

    Orbital Energies [Eh]
    ---------------------

    Doubly Occupied:

       1A    -15.558919     2A    -11.275989     3A    -11.234337
       4A    -11.234302     5A    -11.222832     6A    -11.222814
       7A    -11.218765     8A     -1.219663     9A     -1.124184
      10A     -1.010025    11A     -0.983520    12A     -0.829304
      13A     -0.809113    14A     -0.701128    15A     -0.678386
      16A     -0.651736    17A     -0.595747    18A     -0.589603
      19A     -0.579071    20A     -0.531300    21A     -0.504015
      22A     -0.487182    23A     -0.446828    24A     -0.334563
      25A     -0.294472

  @DF-RHF Final Energy:  -285.79856834966785

   => Energetics <=

    Nuclear Repulsion Energy =            271.2300712943817302
    One-Electron Energy =                -923.3816815496639947
    Two-Electron Energy =                 366.3530419056144751
    Total Energy =                       -285.7985683496678462

  Dipole Moment: [D]
     X:    -0.9085      Y:     0.0005      Z:    -1.2028     Total:     1.5073

  Basis Set: (6-311G** AUX)
    Blend: CC-PVTZ-RI
	 Reference Energy          =    -285.7985683496678462 [Eh]
	 Singles Energy            =      -0.0000000000000000 [Eh]
	 Same-Spin Energy          =      -0.2637322758458412 [Eh]
	 Opposite-Spin Energy      =      -0.7420981781025974 [Eh]
	 Correlation Energy        =      -1.0058304539484386 [Eh]
	 Total Energy              =    -286.8043988036162659 [Eh]

	 ================> DF-SCS-MP2 Energies <==================
	-----------------------------------------------------------
	 SCS Same-Spin Scale       =       0.3333333333333333 [-]
	 SCS Opposite-Spin Scale   =       1.2000000000000000 [-]
	 SCS Same-Spin Energy      =      -0.0879107586152804 [Eh]
	 SCS Opposite-Spin Energy  =      -0.8905178137231168 [Eh]
	 SCS Correlation Energy    =      -0.9784285723383972 [Eh]
	 SCS Total Energy          =    -286.7769969220062194 [Eh]
	-----------------------------------------------------------

*** Psi4 exiting successfully. Buy a developer a beer!
