 Gaussian 09, Revision A.02,
 Gaussian 09:  EM64L-G09RevA.02 11-Jun-2009

 ----------------------------------------------------------------------
 #P MP2/6-311++G(2d,2p) Sp Density=MP2 SCF=Save Guess=Huckel MaxDisk=10
 0GB
 ----------------------------------------------------------------------

 --------------------------------------------------------------
 methylamine Gaussian SP Calculation on bme-nova.bme.utexas.edu
 --------------------------------------------------------------
 Symbolic Z-matrix:
 Charge =  0 Multiplicity = 1

                         Standard orientation:
 ---------------------------------------------------------------------
 Center     Atomic      Atomic             Coordinates (Angstroms)
 Number     Number       Type             X           Y           Z
 ---------------------------------------------------------------------
      1          7           0        0.751098    0.000000   -0.125814
      2          6           0       -0.706357    0.000000    0.017571
      3          1           0       -1.078685   -0.000036    1.053112
      4          1           0       -1.110710   -0.880985   -0.486208
      5          1           0       -1.110702    0.881025   -0.486143
      6          1           0        1.140279   -0.812602    0.347256
      7          1           0        1.140277    0.812602    0.347256
 ---------------------------------------------------------------------

 SCF Done:  E(RHF) =  -95.2500171662     A.U. after   12 cycles
 E2 =    -0.3706159959D+00 EUMP2 =    -0.95620633162098D+02

 The electronic state is 1-A.
 Alpha  occ. eigenvalues --  -15.54044 -11.24175  -1.16962  -0.89426  -0.66131
 Alpha  occ. eigenvalues --   -0.60357  -0.55440  -0.51627  -0.39283
 Alpha virt. eigenvalues --    0.04015   0.06189   0.06632   0.07568   0.09840
 Alpha virt. eigenvalues --    0.12610   0.15968   0.16075   0.18539   0.21500
 Alpha virt. eigenvalues --    0.24042   0.24929   0.29608   0.29963   0.30983

 Mulliken atomic charges:
              1
     1  N   -0.344947
     2  C   -0.141618
     3  H    0.049602
     4  H    0.074177
     5  H    0.074176
     6  H    0.144305
     7  H    0.144305
 Sum of Mulliken atomic charges =   0.00000

 Dipole moment (field-independent basis, Debye):
    X=             -0.3377    Y=              0.0000    Z=              1.3972  Tot=              1.4374
 Quadrupole moment (field-independent basis, Debye-Ang):
   XX=            -14.4082   YY=            -12.8570   ZZ=            -15.8266
   XY=              0.0000   XZ=              2.1569   YZ=              0.0000

 Normal termination of Gaussian 09 at Fri Dec 20 10:19:05 2019.
