 Gaussian 09, Revision A.02,
 Gaussian 09:  EM64L-G09RevA.02 11-Jun-2009

 ---------------------------------------------------------
 #P opt=(maxcycle=400) MP2/6-31G* Guess=INDO MaxDisk=100GB
 ---------------------------------------------------------

 --------------------------------------------------------------
 methylamine Gaussian SP Calculation on bme-nova.bme.utexas.edu
 --------------------------------------------------------------
 Symbolic Z-matrix:
 Charge =  0 Multiplicity = 1

 SCF Done:  E(RHF) =  -95.2080529737     A.U. after   12 cycles
 E2 =    -0.2967798382D+00 EUMP2 =    -0.95504832811876D+02
 SCF Done:  E(RHF) =  -95.2089605193     A.U. after   11 cycles
 E2 =    -0.2974449395D+00 EUMP2 =    -0.95506405458788D+02
 SCF Done:  E(RHF) =  -95.2091255649     A.U. after   10 cycles
 E2 =    -0.2973985376D+00 EUMP2 =    -0.95506524102532D+02
 SCF Done:  E(RHF) =  -95.2090995875     A.U. after    9 cycles
 E2 =    -0.2974306642D+00 EUMP2 =    -0.95506530251693D+02
 Optimization completed.
    -- Stationary point found.

                         Standard orientation:
 ---------------------------------------------------------------------
 Center     Atomic      Atomic             Coordinates (Angstroms)
 Number     Number       Type             X           Y           Z
 ---------------------------------------------------------------------
      1          7           0        0.751098    0.000000   -0.125814
      2          6           0       -0.706357    0.000000    0.017571
      3          1           0       -1.078685   -0.000036    1.053112
      4          1           0       -1.110710   -0.880985   -0.486208
      5          1           0       -1.110702    0.881025   -0.486143
      6          1           0        1.140279   -0.812602    0.347256
      7          1           0        1.140277    0.812602    0.347256
 ---------------------------------------------------------------------

 The electronic state is 1-A.
 Alpha  occ. eigenvalues --  -15.54106 -11.24188  -1.16552  -0.89253  -0.65776
 Alpha  occ. eigenvalues --   -0.60058  -0.55151  -0.51464  -0.38752
 Alpha virt. eigenvalues --    0.22578   0.28534   0.30583   0.32891   0.33413
 Alpha virt. eigenvalues --    0.41628   0.76759   0.77605   0.79311   0.97002
 Alpha virt. eigenvalues --    0.99641   1.05428   1.13282   1.18861   1.20506

 Mulliken atomic charges:
              1
     1  N   -0.826384
     2  C   -0.297039
     3  H    0.133234
     4  H    0.165871
     5  H    0.165870
     6  H    0.329224
     7  H    0.329224
 Sum of Mulliken atomic charges =   0.00000

 Dipole moment (field-independent basis, Debye):
    X=             -0.3165    Y=              0.0000    Z=              1.5661  Tot=              1.5977
 Quadrupole moment (field-independent basis, Debye-Ang):
   XX=            -13.8520   YY=            -12.5558   ZZ=            -15.2797
   XY=              0.0000   XZ=              2.2188   YZ=              0.0000

 1\1\GINC-BME-NOVA\FOpt\RMP2-FC\6-31G(d)\C1H5N1\BDW2292\20-Dec-2019\0\\
 #P opt=(maxcycle=400) MP2/6-31G* Guess=INDO MaxDisk=100GB\\methylamine
  Gaussian SP Calculation on bme-nova.bme.utexas.edu\\0,1\N,-0.73608895
 7,-0.0007996139,-0.0087119965\C,0.7280955306,0.0018982717,0.0211195892
 \H,1.1795905392,0.0918339345,1.0206389955\H,1.0921636834,0.8315457097,
 -0.5892635271\H,1.0921784105,-0.9233746681,-0.4313633582\H,-1.08742868
 21,0.8534827183,0.4183001737\H,-1.0874105246,-0.7651872123,0.563880200
 6\\Version=EM64L-G09RevA.02\State=1-A\HF=-95.2090996\MP2=-95.5065303\R

 Normal termination of Gaussian 09 at Fri Dec 20 10:18:47 2019.
