 Gaussian 09, Revision A.02,
 Gaussian 09:  EM64L-G09RevA.02 11-Jun-2009

 ---------------------------------------------
 #P opt=(,maxcycle=400) HF/6-31G* MaxDisk=50GB
 ---------------------------------------------

 ------------------------------------------------------------------
 ModifiedRes Rotatable Bond Optimization on bme-nova.bme.utexas.edu
 ------------------------------------------------------------------
 Symbolic Z-matrix:
 Charge =  0 Multiplicity = 1

 SCF Done:  E(RHF) =  -903.996365105     A.U. after   16 cycles
 SCF Done:  E(RHF) =  -904.010715169     A.U. after   14 cycles
 SCF Done:  E(RHF) =  -904.011725863     A.U. after   16 cycles
 SCF Done:  E(RHF) =  -904.011764643     A.U. after   13 cycles
 SCF Done:  E(RHF) =  -904.011838260     A.U. after   12 cycles
 SCF Done:  E(RHF) =  -904.011968947     A.U. after   12 cycles
 SCF Done:  E(RHF) =  -904.011977530     A.U. after   12 cycles
 SCF Done:  E(RHF) =  -904.011994685     A.U. after   13 cycles
 SCF Done:  E(RHF) =  -904.012016000     A.U. after   12 cycles
 SCF Done:  E(RHF) =  -904.012023118     A.U. after   11 cycles
 SCF Done:  E(RHF) =  -904.012025788     A.U. after   11 cycles
 SCF Done:  E(RHF) =  -904.012026117     A.U. after   11 cycles
 SCF Done:  E(RHF) =  -904.012026208     A.U. after   10 cycles
 Optimization completed.
    -- Stationary point found.

                         Standard orientation:
 ---------------------------------------------------------------------
 Center     Atomic      Atomic             Coordinates (Angstroms)
 Number     Number       Type             X           Y           Z
 ---------------------------------------------------------------------
      1          7           0        0.711741    0.705649   -1.055348
      2          1           0        0.526375    0.438691   -1.996077
      3          6           0        0.433958   -0.236474    0.013305
      4          1           0        0.158344    0.341071    0.884933
      5          6           0        1.693988   -1.057989    0.334293
      6          8           0        1.820248   -2.185935   -0.055600
      7          6           0       -0.693938   -1.194280   -0.357474
      8         16           0       -2.287913   -0.399398   -0.764119
      9          6           0       -2.663980    0.296591    0.748045
     10          7           0       -2.927495    0.767246    1.749283
     11          1           0       -0.439430   -1.764896   -1.240118
     12          1           0       -0.851760   -1.901554    0.441516
     13          6           0        1.231422    1.926937   -0.824885
     14          8           0        1.568134    2.329283    0.252339
     15          7           0        2.609619   -0.406051    1.069843
     16          1           0        1.324035    2.530388   -1.725569
     17          1           0        2.527280    0.572554    1.243432
     18          1           0        3.488956   -0.849272    1.217723
 ---------------------------------------------------------------------

 The electronic state is 1-A.
 Alpha  occ. eigenvalues --  -92.01318 -20.56206 -20.54431 -15.62624 -15.59238
 Alpha  occ. eigenvalues --  -15.59192 -11.37822 -11.36812 -11.31508 -11.30578
 Alpha  occ. eigenvalues --  -11.30340  -9.02222  -6.70535  -6.70338  -6.70141
 Alpha  occ. eigenvalues --   -1.42671  -1.41118  -1.27939  -1.24610  -1.22734
 Alpha  occ. eigenvalues --   -1.12235  -1.03036  -0.91641  -0.86471  -0.81127
 Alpha  occ. eigenvalues --   -0.76783  -0.75109  -0.70866  -0.70105  -0.66465
 Alpha  occ. eigenvalues --   -0.63585  -0.62643  -0.61843  -0.59556  -0.57613
 Alpha  occ. eigenvalues --   -0.56976  -0.55492  -0.53821  -0.52752  -0.46785
 Alpha  occ. eigenvalues --   -0.46529  -0.45729  -0.42432  -0.40963  -0.39143
 Alpha virt. eigenvalues --    0.12461   0.16572   0.18349   0.19276   0.20449
 Alpha virt. eigenvalues --    0.21506   0.22784   0.23873   0.24870   0.27224
 Alpha virt. eigenvalues --    0.29134   0.29873   0.32483   0.34212   0.37842

 Mulliken atomic charges:
              1
     1  N   -0.758005
     2  H    0.399538
     3  C   -0.077344
     4  H    0.259628
     5  C    0.772154
     6  O   -0.604997
     7  C   -0.519373
     8  S    0.283007
     9  C    0.093547
    10  N   -0.376967
    11  H    0.243594
    12  H    0.257301
    13  C    0.523397
    14  O   -0.580426
    15  N   -0.931079
    16  H    0.178132
    17  H    0.440729
    18  H    0.397164
 Sum of Mulliken atomic charges =   0.00000

 Dipole moment (field-independent basis, Debye):
    X=              1.8556    Y=             -0.2864    Z=             -4.0651  Tot=              4.4777
 Quadrupole moment (field-independent basis, Debye-Ang):
   XX=            -75.2928   YY=            -82.7284   ZZ=            -68.4610
   XY=              6.2125   XZ=              7.0720   YZ=             -7.7292

 Normal termination of Gaussian 09 at Tue Dec 31 09:04:15 2019.
