 Gaussian 09, Revision A.02,
 Gaussian 09:  EM64L-G09RevA.02 11-Jun-2009

 ---------------------------------------------
 #P opt=(,maxcycle=400) HF/6-31G* MaxDisk=50GB
 ---------------------------------------------

 ------------------------------------------------------------------
 ModifiedRes Rotatable Bond Optimization on bme-nova.bme.utexas.edu
 ------------------------------------------------------------------
 Symbolic Z-matrix:
 Charge =  0 Multiplicity = 1

 SCF Done:  E(RHF) =  -903.996884523     A.U. after   16 cycles
 SCF Done:  E(RHF) =  -904.010514464     A.U. after   14 cycles
 SCF Done:  E(RHF) =  -904.010624432     A.U. after   15 cycles
 SCF Done:  E(RHF) =  -904.011083073     A.U. after   14 cycles
 SCF Done:  E(RHF) =  -904.011162022     A.U. after   12 cycles
 SCF Done:  E(RHF) =  -904.011278357     A.U. after   12 cycles
 SCF Done:  E(RHF) =  -904.011291518     A.U. after   12 cycles
 SCF Done:  E(RHF) =  -904.011365886     A.U. after   12 cycles
 SCF Done:  E(RHF) =  -904.011410461     A.U. after   12 cycles
 SCF Done:  E(RHF) =  -904.011453701     A.U. after   12 cycles
 SCF Done:  E(RHF) =  -904.011476261     A.U. after   12 cycles
 SCF Done:  E(RHF) =  -904.011480203     A.U. after   11 cycles
 SCF Done:  E(RHF) =  -904.011480853     A.U. after   10 cycles
 SCF Done:  E(RHF) =  -904.011481396     A.U. after   10 cycles
 SCF Done:  E(RHF) =  -904.011481494     A.U. after    9 cycles
 SCF Done:  E(RHF) =  -904.011481521     A.U. after    8 cycles
 Optimization completed.
    -- Stationary point found.

                         Standard orientation:
 ---------------------------------------------------------------------
 Center     Atomic      Atomic             Coordinates (Angstroms)
 Number     Number       Type             X           Y           Z
 ---------------------------------------------------------------------
      1          7           0        0.972481   -0.886583    0.757478
      2          1           0        0.596734   -0.860369    1.679957
      3          6           0        0.605116    0.165505   -0.176153
      4          1           0        0.716543   -0.245075   -1.170343
      5          6           0        1.544233    1.374238   -0.029432
      6          8           0        1.191268    2.377448    0.523684
      7          6           0       -0.834707    0.613910    0.044211
      8         16           0       -1.956441   -0.821447   -0.177006
      9          6           0       -3.448518    0.002020   -0.102225
     10          7           0       -4.455908    0.527310   -0.053738
     11          1           0       -0.966660    1.028459    1.031447
     12          1           0       -1.092745    1.372077   -0.678198
     13          6           0        1.915621   -1.808586    0.474466
     14          8           0        2.538970   -1.848726   -0.547805
     15          7           0        2.762911    1.196030   -0.567400
     16          1           0        2.059917   -2.533104    1.273033
     17          1           0        3.054461    0.305975   -0.908988
     18          1           0        3.446056    1.905577   -0.421425
 ---------------------------------------------------------------------

 The electronic state is 1-A.
 Alpha  occ. eigenvalues --  -92.01090 -20.56944 -20.54874 -15.63317 -15.59693
 Alpha  occ. eigenvalues --  -15.58907 -11.38515 -11.37293 -11.32194 -11.30401
 Alpha  occ. eigenvalues --  -11.30071  -9.01998  -6.70307  -6.70117  -6.69913
 Alpha  occ. eigenvalues --   -1.43378  -1.41614  -1.28588  -1.24298  -1.23199
 Alpha  occ. eigenvalues --   -1.12244  -1.03304  -0.91357  -0.87053  -0.81771
 Alpha  occ. eigenvalues --   -0.76977  -0.75842  -0.71458  -0.69982  -0.67175
 Alpha  occ. eigenvalues --   -0.64517  -0.62830  -0.62086  -0.58994  -0.58406
 Alpha  occ. eigenvalues --   -0.57101  -0.56108  -0.53406  -0.52338  -0.47402
 Alpha  occ. eigenvalues --   -0.46509  -0.46143  -0.42870  -0.41763  -0.38696
 Alpha virt. eigenvalues --    0.12894   0.15867   0.17634   0.19444   0.20875
 Alpha virt. eigenvalues --    0.21182   0.22431   0.23473   0.24298   0.27396
 Alpha virt. eigenvalues --    0.28397   0.29670   0.32295   0.34511   0.37790

 Mulliken atomic charges:
              1
     1  N   -0.768347
     2  H    0.406886
     3  C   -0.100357
     4  H    0.253911
     5  C    0.775422
     6  O   -0.596772
     7  C   -0.492799
     8  S    0.286004
     9  C    0.084627
    10  N   -0.376529
    11  H    0.246073
    12  H    0.252397
    13  C    0.521809
    14  O   -0.579160
    15  N   -0.934264
    16  H    0.182737
    17  H    0.438962
    18  H    0.399401
 Sum of Mulliken atomic charges =   0.00000

 Dipole moment (field-independent basis, Debye):
    X=              4.1288    Y=             -2.0494    Z=              1.5073  Tot=              4.8497
 Quadrupole moment (field-independent basis, Debye-Ang):
   XX=            -89.2639   YY=            -79.2424   ZZ=            -67.5868
   XY=              6.4360   XZ=              2.5751   YZ=             -8.6415

 Normal termination of Gaussian 09 at Mon Dec 30 10:02:13 2019.
