 Gaussian 09, Revision A.02,
 Gaussian 09:  EM64L-G09RevA.02 11-Jun-2009

 ---------------------------------------------
 #P opt=(,maxcycle=400) HF/6-31G* MaxDisk=50GB
 ---------------------------------------------

 ------------------------------------------------------------------
 ModifiedRes Rotatable Bond Optimization on bme-nova.bme.utexas.edu
 ------------------------------------------------------------------
 Symbolic Z-matrix:
 Charge =  0 Multiplicity = 1

 SCF Done:  E(RHF) =  -903.990808895     A.U. after   16 cycles
 SCF Done:  E(RHF) =  -904.004685115     A.U. after   14 cycles
 SCF Done:  E(RHF) =  -904.005828269     A.U. after   15 cycles
 SCF Done:  E(RHF) =  -904.006975610     A.U. after   16 cycles
 SCF Done:  E(RHF) =  -904.007487554     A.U. after   16 cycles
 SCF Done:  E(RHF) =  -904.008030110     A.U. after   13 cycles
 SCF Done:  E(RHF) =  -904.008080722     A.U. after   14 cycles
 SCF Done:  E(RHF) =  -904.008201250     A.U. after   13 cycles
 SCF Done:  E(RHF) =  -904.008283920     A.U. after   13 cycles
 SCF Done:  E(RHF) =  -904.008316970     A.U. after   12 cycles
 SCF Done:  E(RHF) =  -904.008325524     A.U. after   12 cycles
 SCF Done:  E(RHF) =  -904.008329016     A.U. after   12 cycles
 SCF Done:  E(RHF) =  -904.008331286     A.U. after   12 cycles
 SCF Done:  E(RHF) =  -904.008331618     A.U. after   11 cycles
 SCF Done:  E(RHF) =  -904.008331725     A.U. after   10 cycles
 SCF Done:  E(RHF) =  -904.008331759     A.U. after    9 cycles
 Optimization completed.
    -- Stationary point found.

                         Standard orientation:
 ---------------------------------------------------------------------
 Center     Atomic      Atomic             Coordinates (Angstroms)
 Number     Number       Type             X           Y           Z
 ---------------------------------------------------------------------
      1          7           0        1.568612   -1.040118    0.748938
      2          1           0        1.393717   -1.178353    1.720198
      3          6           0        0.637873   -0.224647   -0.013488
      4          1           0        0.801314   -0.467228   -1.054159
      5          6           0        0.951605    1.258696    0.237018
      6          8           0        0.399713    1.872961    1.105001
      7          6           0       -0.789626   -0.577418    0.397604
      8         16           0       -1.962610    0.084997   -0.843938
      9          6           0       -3.421501   -0.307368   -0.055523
     10          7           0       -4.405192   -0.569138    0.451496
     11          1           0       -0.902371   -1.650628    0.434261
     12          1           0       -1.021585   -0.139914    1.356284
     13          6           0        2.783324   -1.371807    0.261009
     14          8           0        3.179664   -1.075782   -0.829327
     15          7           0        1.898584    1.771333   -0.571225
     16          1           0        3.379755   -1.955784    0.959010
     17          1           0        2.473225    1.171696   -1.122535
     18          1           0        2.238607    2.683546   -0.359625
 ---------------------------------------------------------------------

 The electronic state is 1-A.
 Alpha  occ. eigenvalues --  -92.00786 -20.56847 -20.54840 -15.63176 -15.59795
 Alpha  occ. eigenvalues --  -15.58676 -11.38403 -11.37142 -11.32050 -11.30204
 Alpha  occ. eigenvalues --  -11.29888  -9.01705  -6.70016  -6.69830  -6.69614
 Alpha  occ. eigenvalues --   -1.43285  -1.41569  -1.28390  -1.24081  -1.23248
 Alpha  occ. eigenvalues --   -1.12218  -1.02847  -0.91521  -0.86654  -0.81700
 Alpha  occ. eigenvalues --   -0.77247  -0.74924  -0.71639  -0.70377  -0.66428
 Alpha  occ. eigenvalues --   -0.64569  -0.63468  -0.61628  -0.58283  -0.57873
 Alpha  occ. eigenvalues --   -0.57360  -0.56133  -0.53136  -0.52059  -0.47202
 Alpha  occ. eigenvalues --   -0.46986  -0.45370  -0.43131  -0.41485  -0.38459
 Alpha virt. eigenvalues --    0.12539   0.15949   0.17428   0.19938   0.20491
 Alpha virt. eigenvalues --    0.21866   0.22729   0.24194   0.24494   0.27100
 Alpha virt. eigenvalues --    0.27838   0.30462   0.31858   0.34868   0.38525

 Mulliken atomic charges:
              1
     1  N   -0.764391
     2  H    0.403320
     3  C   -0.086497
     4  H    0.249926
     5  C    0.763967
     6  O   -0.595219
     7  C   -0.503516
     8  S    0.298329
     9  C    0.087276
    10  N   -0.378801
    11  H    0.235921
    12  H    0.261129
    13  C    0.518649
    14  O   -0.576012
    15  N   -0.921427
    16  H    0.179965
    17  H    0.428940
    18  H    0.398440
 Sum of Mulliken atomic charges =   0.00000

 Dipole moment (field-independent basis, Debye):
    X=              5.0522    Y=             -1.6091    Z=              0.7704  Tot=              5.3580
 Quadrupole moment (field-independent basis, Debye-Ang):
   XX=            -91.1656   YY=            -70.3649   ZZ=            -70.8214
   XY=              0.8497   XZ=             10.3170   YZ=             -9.3231

 Normal termination of Gaussian 09 at Tue Dec 31 08:58:19 2019.
