 Gaussian 09, Revision A.02,
 Gaussian 09:  EM64L-G09RevA.02 11-Jun-2009

 ------------------------------------------------------------------
 #P MP2/6-311++G** SP SCF=(qc,maxcycle=800) Guess=Indo MaxDisk=50GB
 ------------------------------------------------------------------

 --------------------------------------------------------------------
 ModifiedRes Rotatable Bond SP Calculation on bme-nova.bme.utexas.edu
 --------------------------------------------------------------------
 Symbolic Z-matrix:
 Charge =  0 Multiplicity = 1

                         Standard orientation:
 ---------------------------------------------------------------------
 Center     Atomic      Atomic             Coordinates (Angstroms)
 Number     Number       Type             X           Y           Z
 ---------------------------------------------------------------------
      1          7           0        1.006304   -0.904245    0.781862
      2          1           0        0.632899   -0.890057    1.726561
      3          6           0        0.611498    0.153362   -0.170852
      4          1           0        0.730128   -0.268942   -1.178332
      5          6           0        1.551678    1.373398   -0.023754
      6          8           0        1.172023    2.383934    0.572115
      7          6           0       -0.851274    0.593217    0.039428
      8         16           0       -1.989453   -0.838178   -0.174625
      9          6           0       -3.473037   -0.010994   -0.109835
     10          7           0       -4.521314    0.540426   -0.068338
     11          1           0       -0.988781    1.018009    1.036250
     12          1           0       -1.110371    1.354558   -0.700082
     13          6           0        1.977213   -1.819328    0.489005
     14          8           0        2.599876   -1.824018   -0.578956
     15          7           0        2.780422    1.242287   -0.591279
     16          1           0        2.157995   -2.557767    1.285971
     17          1           0        3.067944    0.360638   -1.007009
     18          1           0        3.411890    2.027872   -0.514309
 ---------------------------------------------------------------------

 SCF Done:  E(RHF) =  -904.162483265     a.u. after   11 cycles
 E2 =    -0.1755586596D+01 EUMP2 =    -0.90591806986067D+03

 The electronic state is 1-A.
 Alpha  occ. eigenvalues --  -92.02872 -20.56619 -20.54829 -15.63978 -15.60638
 Alpha  occ. eigenvalues --  -15.60110 -11.39828 -11.38723 -11.33844 -11.31620
 Alpha  occ. eigenvalues --  -11.31493  -9.03018  -6.71276  -6.71094  -6.70939
 Alpha  occ. eigenvalues --   -1.41747  -1.40284  -1.27940  -1.23165  -1.22783
 Alpha  occ. eigenvalues --   -1.12314  -1.03771  -0.91706  -0.87250  -0.81632
 Alpha  occ. eigenvalues --   -0.76856  -0.75760  -0.71729  -0.70157  -0.67696
 Alpha  occ. eigenvalues --   -0.64311  -0.62885  -0.62157  -0.59011  -0.58241
 Alpha  occ. eigenvalues --   -0.57034  -0.56670  -0.53459  -0.51927  -0.47785
 Alpha  occ. eigenvalues --   -0.47073  -0.45882  -0.43374  -0.42685  -0.39104
 Alpha virt. eigenvalues --    0.02692   0.04081   0.05149   0.05499   0.07163
 Alpha virt. eigenvalues --    0.07508   0.08503   0.08756   0.09459   0.10665
 Alpha virt. eigenvalues --    0.10810   0.11851   0.12563   0.12805   0.13083

 Mulliken atomic charges:
              1
     1  N   -0.120130
     2  H    0.338348
     3  C   -0.381087
     4  H    0.273535
     5  C    0.258419
     6  O   -0.401288
     7  C   -0.471758
     8  S    0.127981
     9  C   -0.107163
    10  N   -0.198885
    11  H    0.258498
    12  H    0.236822
    13  C    0.291162
    14  O   -0.451574
    15  N   -0.498211
    16  H    0.159731
    17  H    0.317463
    18  H    0.368135
 Sum of Mulliken atomic charges =   0.00000

 Dipole moment (field-independent basis, Debye):
    X=              4.2319    Y=             -2.2565    Z=              1.2959  Tot=              4.9679
 Quadrupole moment (field-independent basis, Debye-Ang):
   XX=            -93.1974   YY=            -80.5048   ZZ=            -68.6820
   XY=              7.2237   XZ=              2.0918   YZ=            -10.3490

 Normal termination of Gaussian 09 at Tue Dec 31 08:50:25 2019.
