 Gaussian 09, Revision A.02,
 Gaussian 09:  EM64L-G09RevA.02 11-Jun-2009

 ---------------------------------------------
 #P opt=(,maxcycle=400) HF/6-31G* MaxDisk=50GB
 ---------------------------------------------

 ------------------------------------------------------------------
 ModifiedRes Rotatable Bond Optimization on bme-nova.bme.utexas.edu
 ------------------------------------------------------------------
 Symbolic Z-matrix:
 Charge =  0 Multiplicity = 1

 SCF Done:  E(RHF) =  -903.986846675     A.U. after   16 cycles
 SCF Done:  E(RHF) =  -904.003635755     A.U. after   15 cycles
 SCF Done:  E(RHF) =  -904.006105126     A.U. after   14 cycles
 SCF Done:  E(RHF) =  -904.010790566     A.U. after   15 cycles
 SCF Done:  E(RHF) =  -904.010363086     A.U. after   13 cycles
 SCF Done:  E(RHF) =  -904.011331889     A.U. after   14 cycles
 SCF Done:  E(RHF) =  -904.011170724     A.U. after   13 cycles
 SCF Done:  E(RHF) =  -904.011421423     A.U. after   12 cycles
 SCF Done:  E(RHF) =  -904.011466576     A.U. after   12 cycles
 SCF Done:  E(RHF) =  -904.011470107     A.U. after   12 cycles
 SCF Done:  E(RHF) =  -904.011478610     A.U. after   12 cycles
 SCF Done:  E(RHF) =  -904.011480533     A.U. after   10 cycles
 SCF Done:  E(RHF) =  -904.011481006     A.U. after   10 cycles
 SCF Done:  E(RHF) =  -904.011481233     A.U. after    9 cycles
 SCF Done:  E(RHF) =  -904.011481444     A.U. after    9 cycles
 SCF Done:  E(RHF) =  -904.011481516     A.U. after    8 cycles
 Optimization completed.
    -- Stationary point found.

                         Standard orientation:
 ---------------------------------------------------------------------
 Center     Atomic      Atomic             Coordinates (Angstroms)
 Number     Number       Type             X           Y           Z
 ---------------------------------------------------------------------
      1          7           0        0.972499   -0.886379    0.757603
      2          1           0        0.596472   -0.860289    1.679971
      3          6           0        0.605154    0.165551   -0.176191
      4          1           0        0.716678   -0.245177   -1.170306
      5          6           0        1.544312    1.374230   -0.029482
      6          8           0        1.191372    2.377527    0.523494
      7          6           0       -0.834672    0.614007    0.043981
      8         16           0       -1.956399   -0.821354   -0.177154
      9          6           0       -3.448479    0.002064   -0.102108
     10          7           0       -4.455907    0.527269   -0.053457
     11          1           0       -0.966713    1.028701    1.031145
     12          1           0       -1.092589    1.372077   -0.678578
     13          6           0        1.915354   -1.808665    0.474544
     14          8           0        2.538677   -1.849014   -0.547737
     15          7           0        2.763088    1.195854   -0.567214
     16          1           0        2.059479   -2.533178    1.273149
     17          1           0        3.054586    0.305791   -0.908820
     18          1           0        3.446308    1.905312   -0.421144
 ---------------------------------------------------------------------

 The electronic state is 1-A.
 Alpha  occ. eigenvalues --  -92.01090 -20.56944 -20.54874 -15.63317 -15.59693
 Alpha  occ. eigenvalues --  -15.58908 -11.38515 -11.37293 -11.32194 -11.30401
 Alpha  occ. eigenvalues --  -11.30072  -9.01999  -6.70307  -6.70117  -6.69913
 Alpha  occ. eigenvalues --   -1.43377  -1.41614  -1.28588  -1.24299  -1.23198
 Alpha  occ. eigenvalues --   -1.12245  -1.03305  -0.91358  -0.87052  -0.81772
 Alpha  occ. eigenvalues --   -0.76977  -0.75842  -0.71459  -0.69982  -0.67175
 Alpha  occ. eigenvalues --   -0.64517  -0.62831  -0.62085  -0.58994  -0.58406
 Alpha  occ. eigenvalues --   -0.57101  -0.56108  -0.53406  -0.52338  -0.47401
 Alpha  occ. eigenvalues --   -0.46509  -0.46143  -0.42870  -0.41763  -0.38697
 Alpha virt. eigenvalues --    0.12893   0.15867   0.17635   0.19443   0.20874
 Alpha virt. eigenvalues --    0.21181   0.22430   0.23472   0.24298   0.27396
 Alpha virt. eigenvalues --    0.28398   0.29670   0.32294   0.34511   0.37790

 Mulliken atomic charges:
              1
     1  N   -0.768353
     2  H    0.406898
     3  C   -0.100373
     4  H    0.253916
     5  C    0.775454
     6  O   -0.596774
     7  C   -0.492803
     8  S    0.285995
     9  C    0.084633
    10  N   -0.376523
    11  H    0.246082
    12  H    0.252393
    13  C    0.521817
    14  O   -0.579162
    15  N   -0.934275
    16  H    0.182729
    17  H    0.438945
    18  H    0.399402
 Sum of Mulliken atomic charges =   0.00000

 Dipole moment (field-independent basis, Debye):
    X=              4.1280    Y=             -2.0494    Z=              1.5070  Tot=              4.8488
 Quadrupole moment (field-independent basis, Debye-Ang):
   XX=            -89.2631   YY=            -79.2450   ZZ=            -67.5865
   XY=              6.4361   XZ=              2.5758   YZ=             -8.6412

 Normal termination of Gaussian 09 at Mon Dec 30 09:38:01 2019.
