 Gaussian 09, Revision A.02,
 Gaussian 09:  EM64L-G09RevA.02 11-Jun-2009

 ------------------------------------------------------------------
 #P MP2/6-311++G** SP SCF=(qc,maxcycle=800) Guess=Indo MaxDisk=50GB
 ------------------------------------------------------------------

 --------------------------------------------------------------------
 ModifiedRes Rotatable Bond SP Calculation on bme-nova.bme.utexas.edu
 --------------------------------------------------------------------
 Symbolic Z-matrix:
 Charge =  0 Multiplicity = 1

                         Standard orientation:
 ---------------------------------------------------------------------
 Center     Atomic      Atomic             Coordinates (Angstroms)
 Number     Number       Type             X           Y           Z
 ---------------------------------------------------------------------
      1          7           0       -1.033756   -1.235132    0.224074
      2          1           0       -0.279080   -1.916535    0.241027
      3          6           0       -0.514781    0.131324    0.511007
      4          1           0       -0.413754    0.171027    1.603911
      5          6           0       -1.420438    1.354879    0.109633
      6          8           0       -0.868625    2.435349   -0.122268
      7          6           0        0.860406    0.420503   -0.159914
      8         16           0        2.109666   -0.845864    0.312071
      9          6           0        3.539285   -0.049231   -0.145939
     10          7           0        4.524347    0.507425   -0.497612
     11          1           0        0.757942    0.418976   -1.247719
     12          1           0        1.224892    1.392842    0.180871
     13          6           0       -2.186140   -1.801495   -0.254493
     14          8           0       -3.271269   -1.260595   -0.477787
     15          7           0       -2.772502    1.300262    0.133153
     16          1           0       -2.056909   -2.886177   -0.413797
     17          1           0       -3.316960    0.450025    0.162555
     18          1           0       -3.248257    2.161878   -0.098605
 ---------------------------------------------------------------------

 SCF Done:  E(RHF) =  -904.137133760     a.u. after   12 cycles
 E2 =    -0.1757793859D+01 EUMP2 =    -0.90589492761926D+03

 The electronic state is 1-A.
 Alpha  occ. eigenvalues --  -92.03516 -20.56925 -20.53938 -15.64618 -15.60752
 Alpha  occ. eigenvalues --  -15.58924 -11.40692 -11.39006 -11.35471 -11.32282
 Alpha  occ. eigenvalues --  -11.31906  -9.03703  -6.71979  -6.71794  -6.71644
 Alpha  occ. eigenvalues --   -1.42076  -1.40071  -1.28490  -1.23375  -1.21809
 Alpha  occ. eigenvalues --   -1.12806  -1.04444  -0.92046  -0.87973  -0.79468
 Alpha  occ. eigenvalues --   -0.78752  -0.74469  -0.70980  -0.70335  -0.68543
 Alpha  occ. eigenvalues --   -0.64403  -0.63030  -0.61177  -0.60841  -0.58955
 Alpha  occ. eigenvalues --   -0.57322  -0.56116  -0.54060  -0.52506  -0.47754
 Alpha  occ. eigenvalues --   -0.46198  -0.45553  -0.43883  -0.41927  -0.39884
 Alpha virt. eigenvalues --    0.02477   0.04325   0.05180   0.05526   0.06599
 Alpha virt. eigenvalues --    0.07623   0.08271   0.08942   0.09682   0.10213
 Alpha virt. eigenvalues --    0.10689   0.12116   0.12291   0.12536   0.13576

 Mulliken atomic charges:
              1
     1  N   -0.218319
     2  H    0.261190
     3  C    0.008542
     4  H    0.277880
     5  C    0.092465
     6  O   -0.395852
     7  C   -0.515158
     8  S    0.078200
     9  C   -0.037833
    10  N   -0.202907
    11  H    0.272787
    12  H    0.241392
    13  C    0.275501
    14  O   -0.465812
    15  N   -0.533657
    16  H    0.164610
    17  H    0.361623
    18  H    0.335349
 Sum of Mulliken atomic charges =   0.00000

 Dipole moment (field-independent basis, Debye):
    X=             -2.8146    Y=             -4.2179    Z=              1.5637  Tot=              5.3064
 Quadrupole moment (field-independent basis, Debye-Ang):
   XX=            -99.0010   YY=            -74.2019   ZZ=            -72.5710
   XY=             -6.6736   XZ=              0.7890   YZ=              0.6330

 Normal termination of Gaussian 09 at Mon Dec 30 09:58:43 2019.
