 Gaussian 09, Revision A.02,
 Gaussian 09:  EM64L-G09RevA.02 11-Jun-2009

 ------------------------------------------------------------------
 #P MP2/6-311++G** SP SCF=(qc,maxcycle=800) Guess=Indo MaxDisk=50GB
 ------------------------------------------------------------------

 --------------------------------------------------------------------
 ModifiedRes Rotatable Bond SP Calculation on bme-nova.bme.utexas.edu
 --------------------------------------------------------------------
 Symbolic Z-matrix:
 Charge =  0 Multiplicity = 1

                         Standard orientation:
 ---------------------------------------------------------------------
 Center     Atomic      Atomic             Coordinates (Angstroms)
 Number     Number       Type             X           Y           Z
 ---------------------------------------------------------------------
      1          7           0        1.028968   -0.862476    0.803309
      2          1           0        0.651246   -0.810714    1.745272
      3          6           0        0.634275    0.174779   -0.171897
      4          1           0        0.751111   -0.263702   -1.172701
      5          6           0        1.569927    1.399979   -0.050503
      6          8           0        1.179933    2.431929    0.499131
      7          6           0       -0.831014    0.610875    0.033458
      8         16           0       -1.964680   -0.828966   -0.151120
      9          6           0       -3.449156   -0.002251   -0.097051
     10          7           0       -4.497661    0.549467   -0.062446
     11          1           0       -0.968468    1.053257    1.022631
     12          1           0       -1.095280    1.356920   -0.719685
     13          6           0        2.007641   -1.774661    0.534510
     14          8           0        2.333031   -2.087680   -0.614080
     15          7           0        2.813045    1.244908   -0.582056
     16          1           0        2.468693   -2.223152    1.428524
     17          1           0        3.082275    0.387011   -1.054077
     18          1           0        3.441088    2.034221   -0.515216
 ---------------------------------------------------------------------

 SCF Done:  E(RHF) =  -904.156296536     a.u. after   11 cycles
 E2 =    -0.1755214274D+01 EUMP2 =    -0.90591151080965D+03

 The electronic state is 1-A.
 Alpha  occ. eigenvalues --  -92.02705 -20.56475 -20.55340 -15.63414 -15.61527
 Alpha  occ. eigenvalues --  -15.59959 -11.39527 -11.39179 -11.33820 -11.31477
 Alpha  occ. eigenvalues --  -11.31382  -9.02846  -6.71101  -6.70920  -6.70764
 Alpha  occ. eigenvalues --   -1.41622  -1.40712  -1.27759  -1.23834  -1.22636
 Alpha  occ. eigenvalues --   -1.12153  -1.03674  -0.91648  -0.87267  -0.81882
 Alpha  occ. eigenvalues --   -0.77415  -0.75407  -0.71741  -0.70218  -0.67755
 Alpha  occ. eigenvalues --   -0.64937  -0.62844  -0.62348  -0.58835  -0.57707
 Alpha  occ. eigenvalues --   -0.57257  -0.56553  -0.53310  -0.51786  -0.47828
 Alpha  occ. eigenvalues --   -0.47005  -0.45744  -0.44069  -0.42503  -0.38939
 Alpha virt. eigenvalues --    0.02725   0.03821   0.05037   0.05751   0.07124
 Alpha virt. eigenvalues --    0.07504   0.08222   0.08951   0.09360   0.10677
 Alpha virt. eigenvalues --    0.10935   0.11623   0.12248   0.12904   0.13394

 Mulliken atomic charges:
              1
     1  N   -0.108033
     2  H    0.341289
     3  C   -0.370571
     4  H    0.272005
     5  C    0.256468
     6  O   -0.398204
     7  C   -0.454177
     8  S    0.132415
     9  C   -0.106714
    10  N   -0.201928
    11  H    0.255606
    12  H    0.238127
    13  C    0.236979
    14  O   -0.414232
    15  N   -0.508373
    16  H    0.152628
    17  H    0.301652
    18  H    0.375062
 Sum of Mulliken atomic charges =   0.00000

 Dipole moment (field-independent basis, Debye):
    X=              5.0628    Y=             -1.3319    Z=              1.4243  Tot=              5.4254
 Quadrupole moment (field-independent basis, Debye-Ang):
   XX=            -88.9750   YY=            -84.2925   ZZ=            -68.1261
   XY=              8.0082   XZ=              1.9723   YZ=            -10.6085

 Normal termination of Gaussian 09 at Mon Dec 30 09:44:32 2019.
