 Gaussian 09, Revision A.02,
 Gaussian 09:  EM64L-G09RevA.02 11-Jun-2009

 ---------------------------------------------
 #P opt=(,maxcycle=400) HF/6-31G* MaxDisk=50GB
 ---------------------------------------------

 ------------------------------------------------------------------
 ModifiedRes Rotatable Bond Optimization on bme-nova.bme.utexas.edu
 ------------------------------------------------------------------
 Symbolic Z-matrix:
 Charge =  0 Multiplicity = 1

 SCF Done:  E(RHF) =  -903.983883831     A.U. after   16 cycles
 SCF Done:  E(RHF) =  -903.998494155     A.U. after   15 cycles
 SCF Done:  E(RHF) =  -903.996862092     A.U. after   14 cycles
 SCF Done:  E(RHF) =  -904.006142165     A.U. after   14 cycles
 SCF Done:  E(RHF) =  -904.009364113     A.U. after   15 cycles
 SCF Done:  E(RHF) =  -904.009697303     A.U. after   16 cycles
 SCF Done:  E(RHF) =  -904.010781258     A.U. after   14 cycles
 SCF Done:  E(RHF) =  -904.011159011     A.U. after   13 cycles
 SCF Done:  E(RHF) =  -904.011329523     A.U. after   13 cycles
 SCF Done:  E(RHF) =  -904.011380770     A.U. after   13 cycles
 SCF Done:  E(RHF) =  -904.011419732     A.U. after   13 cycles
 SCF Done:  E(RHF) =  -904.011473827     A.U. after   13 cycles
 SCF Done:  E(RHF) =  -904.011478028     A.U. after   11 cycles
 SCF Done:  E(RHF) =  -904.011479575     A.U. after   10 cycles
 SCF Done:  E(RHF) =  -904.011480747     A.U. after   11 cycles
 SCF Done:  E(RHF) =  -904.011481339     A.U. after   10 cycles
 SCF Done:  E(RHF) =  -904.011481499     A.U. after    9 cycles
 Optimization completed.
    -- Stationary point found.

                         Standard orientation:
 ---------------------------------------------------------------------
 Center     Atomic      Atomic             Coordinates (Angstroms)
 Number     Number       Type             X           Y           Z
 ---------------------------------------------------------------------
      1          7           0        0.972437   -0.886608    0.757420
      2          1           0        0.596767   -0.860311    1.679929
      3          6           0        0.605158    0.165597   -0.176107
      4          1           0        0.716515   -0.244950   -1.170318
      5          6           0        1.544241    1.374366   -0.029449
      6          8           0        1.191063    2.377752    0.523247
      7          6           0       -0.834656    0.613963    0.044294
      8         16           0       -1.956338   -0.821451   -0.177029
      9          6           0       -3.448428    0.001986   -0.102202
     10          7           0       -4.455823    0.527285   -0.053696
     11          1           0       -0.966641    1.028440    1.031546
     12          1           0       -1.092712    1.372125   -0.678102
     13          6           0        1.915461   -1.808736    0.474429
     14          8           0        2.538759   -1.849149   -0.547858
     15          7           0        2.763096    1.196042   -0.566878
     16          1           0        2.059678   -2.533171    1.273088
     17          1           0        3.054639    0.306170   -0.908911
     18          1           0        3.445962    1.905991   -0.421597
 ---------------------------------------------------------------------

 The electronic state is 1-A.
 Alpha  occ. eigenvalues --  -92.01089 -20.56943 -20.54873 -15.63317 -15.59695
 Alpha  occ. eigenvalues --  -15.58907 -11.38514 -11.37294 -11.32194 -11.30400
 Alpha  occ. eigenvalues --  -11.30071  -9.01997  -6.70306  -6.70116  -6.69912
 Alpha  occ. eigenvalues --   -1.43376  -1.41614  -1.28588  -1.24297  -1.23200
 Alpha  occ. eigenvalues --   -1.12244  -1.03304  -0.91357  -0.87053  -0.81773
 Alpha  occ. eigenvalues --   -0.76979  -0.75843  -0.71457  -0.69984  -0.67175
 Alpha  occ. eigenvalues --   -0.64516  -0.62830  -0.62085  -0.58993  -0.58409
 Alpha  occ. eigenvalues --   -0.57099  -0.56107  -0.53405  -0.52337  -0.47402
 Alpha  occ. eigenvalues --   -0.46508  -0.46142  -0.42869  -0.41764  -0.38696
 Alpha virt. eigenvalues --    0.12894   0.15867   0.17635   0.19444   0.20875
 Alpha virt. eigenvalues --    0.21183   0.22430   0.23473   0.24295   0.27395
 Alpha virt. eigenvalues --    0.28398   0.29670   0.32291   0.34512   0.37791

 Mulliken atomic charges:
              1
     1  N   -0.768349
     2  H    0.406878
     3  C   -0.100355
     4  H    0.253893
     5  C    0.775473
     6  O   -0.596805
     7  C   -0.492771
     8  S    0.286000
     9  C    0.084625
    10  N   -0.376536
    11  H    0.246064
    12  H    0.252401
    13  C    0.521824
    14  O   -0.579147
    15  N   -0.934294
    16  H    0.182715
    17  H    0.438946
    18  H    0.399438
 Sum of Mulliken atomic charges =   0.00000

 Dipole moment (field-independent basis, Debye):
    X=              4.1297    Y=             -2.0476    Z=              1.5060  Tot=              4.8492
 Quadrupole moment (field-independent basis, Debye-Ang):
   XX=            -89.2628   YY=            -79.2456   ZZ=            -67.5829
   XY=              6.4426   XZ=              2.5693   YZ=             -8.6436

 Normal termination of Gaussian 09 at Mon Dec 30 09:54:28 2019.
