 Gaussian 09, Revision A.02,
 Gaussian 09:  EM64L-G09RevA.02 11-Jun-2009

 ---------------------------------------------
 #P opt=(,maxcycle=400) HF/6-31G* MaxDisk=50GB
 ---------------------------------------------

 ------------------------------------------------------------------
 ModifiedRes Rotatable Bond Optimization on bme-nova.bme.utexas.edu
 ------------------------------------------------------------------
 Symbolic Z-matrix:
 Charge =  0 Multiplicity = 1

 SCF Done:  E(RHF) =  -903.976886498     A.U. after   16 cycles
 SCF Done:  E(RHF) =  -903.992567376     A.U. after   17 cycles
 SCF Done:  E(RHF) =  -903.991961452     A.U. after   16 cycles
 SCF Done:  E(RHF) =  -903.995385737     A.U. after   17 cycles
 SCF Done:  E(RHF) =  -903.996846655     A.U. after   15 cycles
 SCF Done:  E(RHF) =  -903.997719079     A.U. after   17 cycles
 SCF Done:  E(RHF) =  -903.999750027     A.U. after   14 cycles
 SCF Done:  E(RHF) =  -904.002332770     A.U. after   16 cycles
 SCF Done:  E(RHF) =  -904.004149120     A.U. after   15 cycles
 SCF Done:  E(RHF) =  -904.005663014     A.U. after   17 cycles
 SCF Done:  E(RHF) =  -904.010924529     A.U. after   13 cycles
 SCF Done:  E(RHF) =  -904.011197208     A.U. after   13 cycles
 SCF Done:  E(RHF) =  -904.011285524     A.U. after   13 cycles
 SCF Done:  E(RHF) =  -904.011378620     A.U. after   13 cycles
 SCF Done:  E(RHF) =  -904.011437762     A.U. after   12 cycles
 SCF Done:  E(RHF) =  -904.011464511     A.U. after   12 cycles
 SCF Done:  E(RHF) =  -904.011475701     A.U. after   12 cycles
 SCF Done:  E(RHF) =  -904.011480055     A.U. after   11 cycles
 SCF Done:  E(RHF) =  -904.011481262     A.U. after   10 cycles
 SCF Done:  E(RHF) =  -904.011481485     A.U. after    9 cycles
 Optimization completed.
    -- Stationary point found.

                         Standard orientation:
 ---------------------------------------------------------------------
 Center     Atomic      Atomic             Coordinates (Angstroms)
 Number     Number       Type             X           Y           Z
 ---------------------------------------------------------------------
      1          7           0        0.972622   -0.886302    0.757651
      2          1           0        0.597165   -0.859702    1.680250
      3          6           0        0.605143    0.165556   -0.176287
      4          1           0        0.716561   -0.245330   -1.170341
      5          6           0        1.544315    1.374175   -0.029533
      6          8           0        1.191417    2.377380    0.523654
      7          6           0       -0.834672    0.613989    0.044000
      8         16           0       -1.956436   -0.821441   -0.176758
      9          6           0       -3.448513    0.002026   -0.102242
     10          7           0       -4.455838    0.527469   -0.053877
     11          1           0       -0.966602    1.028820    1.031109
     12          1           0       -1.092750    1.371905   -0.678678
     13          6           0        1.915506   -1.808554    0.474542
     14          8           0        2.538340   -1.849152   -0.548029
     15          7           0        2.763097    1.195886   -0.567220
     16          1           0        2.060109   -2.532785    1.273321
     17          1           0        3.054512    0.306138   -0.909671
     18          1           0        3.446082    1.905660   -0.421629
 ---------------------------------------------------------------------

 The electronic state is 1-A.
 Alpha  occ. eigenvalues --  -92.01089 -20.56942 -20.54873 -15.63316 -15.59695
 Alpha  occ. eigenvalues --  -15.58907 -11.38513 -11.37294 -11.32194 -11.30401
 Alpha  occ. eigenvalues --  -11.30071  -9.01997  -6.70306  -6.70116  -6.69912
 Alpha  occ. eigenvalues --   -1.43375  -1.41614  -1.28585  -1.24298  -1.23199
 Alpha  occ. eigenvalues --   -1.12244  -1.03304  -0.91357  -0.87050  -0.81773
 Alpha  occ. eigenvalues --   -0.76979  -0.75841  -0.71457  -0.69982  -0.67174
 Alpha  occ. eigenvalues --   -0.64516  -0.62831  -0.62085  -0.58993  -0.58407
 Alpha  occ. eigenvalues --   -0.57100  -0.56108  -0.53405  -0.52337  -0.47400
 Alpha  occ. eigenvalues --   -0.46507  -0.46142  -0.42869  -0.41764  -0.38695
 Alpha virt. eigenvalues --    0.12894   0.15867   0.17636   0.19445   0.20875
 Alpha virt. eigenvalues --    0.21182   0.22431   0.23474   0.24296   0.27396
 Alpha virt. eigenvalues --    0.28397   0.29669   0.32291   0.34512   0.37789

 Mulliken atomic charges:
              1
     1  N   -0.768362
     2  H    0.406885
     3  C   -0.100374
     4  H    0.253925
     5  C    0.775487
     6  O   -0.596806
     7  C   -0.492777
     8  S    0.286000
     9  C    0.084625
    10  N   -0.376531
    11  H    0.246091
    12  H    0.252373
    13  C    0.521830
    14  O   -0.579165
    15  N   -0.934289
    16  H    0.182730
    17  H    0.438928
    18  H    0.399429
 Sum of Mulliken atomic charges =   0.00000

 Dipole moment (field-independent basis, Debye):
    X=              4.1299    Y=             -2.0471    Z=              1.5053  Tot=              4.8490
 Quadrupole moment (field-independent basis, Debye-Ang):
   XX=            -89.2584   YY=            -79.2466   ZZ=            -67.5822
   XY=              6.4395   XZ=              2.5678   YZ=             -8.6451

 Normal termination of Gaussian 09 at Mon Dec 30 09:52:53 2019.
