 Gaussian 09, Revision A.02,
 Gaussian 09:  EM64L-G09RevA.02 11-Jun-2009

 ------------------------------------------------------------------
 #P MP2/6-311++G** SP SCF=(qc,maxcycle=800) Guess=Indo MaxDisk=50GB
 ------------------------------------------------------------------

 --------------------------------------------------------------------
 ModifiedRes Rotatable Bond SP Calculation on bme-nova.bme.utexas.edu
 --------------------------------------------------------------------
 Symbolic Z-matrix:
 Charge =  0 Multiplicity = 1

                         Standard orientation:
 ---------------------------------------------------------------------
 Center     Atomic      Atomic             Coordinates (Angstroms)
 Number     Number       Type             X           Y           Z
 ---------------------------------------------------------------------
      1          7           0        1.268205    0.930387   -0.289290
      2          1           0        1.713633    1.057389   -1.190933
      3          6           0        0.687302   -0.318741    0.244800
      4          1           0        0.545052   -0.201960    1.325950
      5          6           0        1.634495   -1.505158   -0.055477
      6          8           0        2.224852   -1.566668   -1.133849
      7          6           0       -0.673981   -0.629852   -0.406811
      8         16           0       -1.844529    0.777650   -0.161371
      9          6           0       -3.282397   -0.104156    0.058980
     10          7           0       -4.292823   -0.703922    0.214271
     11          1           0       -0.547809   -0.791766   -1.480862
     12          1           0       -1.111838   -1.525952    0.040039
     13          6           0        1.621120    1.968177    0.529721
     14          8           0        1.902459    3.091900    0.109169
     15          7           0        1.705925   -2.472454    0.898898
     16          1           0        1.661505    1.726833    1.604902
     17          1           0        1.230419   -2.394541    1.789705
     18          1           0        2.314643   -3.253967    0.696142
 ---------------------------------------------------------------------

 SCF Done:  E(RHF) =  -904.146099130     a.u. after   12 cycles
 E2 =    -0.1757144368D+01 EUMP2 =    -0.90590324349803D+03

 The electronic state is 1-A.
 Alpha  occ. eigenvalues --  -92.03496 -20.56327 -20.54907 -15.63330 -15.61884
 Alpha  occ. eigenvalues --  -15.60575 -11.40362 -11.37876 -11.35291 -11.32573
 Alpha  occ. eigenvalues --  -11.32136  -9.03611  -6.71853  -6.71675  -6.71521
 Alpha  occ. eigenvalues --   -1.42119  -1.39614  -1.26945  -1.25550  -1.23307
 Alpha  occ. eigenvalues --   -1.12837  -1.04186  -0.92002  -0.86871  -0.84431
 Alpha  occ. eigenvalues --   -0.78361  -0.73953  -0.71821  -0.68899  -0.68130
 Alpha  occ. eigenvalues --   -0.66207  -0.64197  -0.62662  -0.60178  -0.58190
 Alpha  occ. eigenvalues --   -0.57352  -0.56061  -0.54213  -0.52632  -0.47792
 Alpha  occ. eigenvalues --   -0.46212  -0.45460  -0.45222  -0.42164  -0.39620
 Alpha virt. eigenvalues --    0.01597   0.04003   0.04976   0.05494   0.06853
 Alpha virt. eigenvalues --    0.07243   0.07736   0.08195   0.09320   0.09853
 Alpha virt. eigenvalues --    0.11040   0.11574   0.12602   0.12904   0.13153

 Mulliken atomic charges:
              1
     1  N   -0.086458
     2  H    0.372239
     3  C   -0.665263
     4  H    0.172377
     5  C    0.340930
     6  O   -0.405017
     7  C   -0.189717
     8  S    0.372439
     9  C   -0.245511
    10  N   -0.199182
    11  H    0.239349
    12  H    0.167686
    13  C    0.189883
    14  O   -0.379685
    15  N   -0.464254
    16  H    0.140911
    17  H    0.276199
    18  H    0.363074
 Sum of Mulliken atomic charges =   0.00000

 Dipole moment (field-independent basis, Debye):
    X=              2.1182    Y=             -4.5739    Z=              3.5980  Tot=              6.1930
 Quadrupole moment (field-independent basis, Debye-Ang):
   XX=           -100.1170   YY=            -82.0858   ZZ=            -68.0787
   XY=            -13.2232   XZ=              9.3781   YZ=             -6.4541

 Normal termination of Gaussian 09 at Mon Dec 30 09:47:37 2019.
