 Gaussian 09, Revision A.02,
 Gaussian 09:  EM64L-G09RevA.02 11-Jun-2009

 ------------------------------------------------------------------
 #P MP2/6-311++G** SP SCF=(qc,maxcycle=800) Guess=Indo MaxDisk=50GB
 ------------------------------------------------------------------

 --------------------------------------------------------------------
 ModifiedRes Rotatable Bond SP Calculation on bme-nova.bme.utexas.edu
 --------------------------------------------------------------------
 Symbolic Z-matrix:
 Charge =  0 Multiplicity = 1

                         Standard orientation:
 ---------------------------------------------------------------------
 Center     Atomic      Atomic             Coordinates (Angstroms)
 Number     Number       Type             X           Y           Z
 ---------------------------------------------------------------------
      1          7           0        1.321582   -0.861793    0.983716
      2          1           0        1.170173   -0.748228    1.981751
      3          6           0        0.604895    0.016537    0.034859
      4          1           0        0.651792   -0.478936   -0.943666
      5          6           0        1.321731    1.383816   -0.058873
      6          8           0        0.974486    2.320577    0.663992
      7          6           0       -0.873994    0.191223    0.484917
      8         16           0       -1.993221   -0.655350   -0.706099
      9          6           0       -3.485129   -0.150187   -0.066599
     10          7           0       -4.516593    0.233696    0.373878
     11          1           0       -1.007550   -0.227244    1.483990
     12          1           0       -1.130061    1.252747    0.512957
     13          6           0        2.385152   -1.619996    0.581958
     14          8           0        2.783688   -1.656810   -0.587664
     15          7           0        2.345518    1.445942   -0.951588
     16          1           0        2.854583   -2.204881    1.388706
     17          1           0        2.685860    0.600613   -1.400694
     18          1           0        2.831876    2.328109   -1.035711
 ---------------------------------------------------------------------

 SCF Done:  E(RHF) =  -904.155825225     a.u. after   11 cycles
 E2 =    -0.1755749869D+01 EUMP2 =    -0.90591157509380D+03

 The electronic state is 1-A.
 Alpha  occ. eigenvalues --  -92.02844 -20.56478 -20.54906 -15.63837 -15.60907
 Alpha  occ. eigenvalues --  -15.60059 -11.39619 -11.38770 -11.33821 -11.31539
 Alpha  occ. eigenvalues --  -11.31267  -9.02983  -6.71240  -6.71055  -6.70898
 Alpha  occ. eigenvalues --   -1.41594  -1.40335  -1.27704  -1.23401  -1.22716
 Alpha  occ. eigenvalues --   -1.12163  -1.03432  -0.91793  -0.87073  -0.81821
 Alpha  occ. eigenvalues --   -0.76965  -0.75348  -0.72141  -0.70084  -0.67124
 Alpha  occ. eigenvalues --   -0.64623  -0.63277  -0.60509  -0.59428  -0.58218
 Alpha  occ. eigenvalues --   -0.57255  -0.56462  -0.53348  -0.51772  -0.47585
 Alpha  occ. eigenvalues --   -0.47184  -0.45695  -0.43612  -0.42479  -0.39099
 Alpha virt. eigenvalues --    0.02590   0.04120   0.05177   0.05733   0.07414
 Alpha virt. eigenvalues --    0.07801   0.08128   0.08573   0.09513   0.10365
 Alpha virt. eigenvalues --    0.10949   0.11535   0.12163   0.13059   0.13264

 Mulliken atomic charges:
              1
     1  N   -0.141840
     2  H    0.336505
     3  C   -0.012171
     4  H    0.301567
     5  C   -0.042363
     6  O   -0.424957
     7  C   -0.509789
     8  S    0.029739
     9  C   -0.003496
    10  N   -0.207901
    11  H    0.158716
    12  H    0.279695
    13  C    0.291202
    14  O   -0.444528
    15  N   -0.429135
    16  H    0.159496
    17  H    0.308029
    18  H    0.351232
 Sum of Mulliken atomic charges =   0.00000

 Dipole moment (field-independent basis, Debye):
    X=              4.6743    Y=             -1.8525    Z=              0.9984  Tot=              5.1262
 Quadrupole moment (field-independent basis, Debye-Ang):
   XX=            -93.2836   YY=            -79.9280   ZZ=            -67.0160
   XY=              5.6356   XZ=              6.2421   YZ=            -11.1500

 Normal termination of Gaussian 09 at Tue Dec 31 09:03:36 2019.
