 Gaussian 09, Revision A.02,
 Gaussian 09:  EM64L-G09RevA.02 11-Jun-2009

 ------------------------------------------------------------------
 #P MP2/6-311++G** SP SCF=(qc,maxcycle=800) Guess=Indo MaxDisk=50GB
 ------------------------------------------------------------------

 --------------------------------------------------------------------
 ModifiedRes Rotatable Bond SP Calculation on bme-nova.bme.utexas.edu
 --------------------------------------------------------------------
 Symbolic Z-matrix:
 Charge =  0 Multiplicity = 1

                         Standard orientation:
 ---------------------------------------------------------------------
 Center     Atomic      Atomic             Coordinates (Angstroms)
 Number     Number       Type             X           Y           Z
 ---------------------------------------------------------------------
      1          7           0        1.016656   -1.240870   -0.593647
      2          1           0        0.483041   -1.852428   -1.206824
      3          6           0        0.567311    0.168438   -0.656221
      4          1           0        0.398898    0.368983   -1.723048
      5          6           0        1.583100    1.259427   -0.162787
      6          8           0        1.147813    2.335841    0.258002
      7          6           0       -0.738622    0.429716    0.138124
      8         16           0       -2.068691   -0.704239   -0.437265
      9          6           0       -3.427370    0.082017    0.214451
     10          7           0       -4.362289    0.626525    0.697999
     11          1           0       -0.576257    0.269422    1.206888
     12          1           0       -1.065773    1.457665   -0.036463
     13          6           0        1.841374   -1.861171    0.301950
     14          8           0        2.501069   -1.287954    1.168247
     15          7           0        2.918520    1.062730   -0.324990
     16          1           0        1.887376   -2.953350    0.161012
     17          1           0        3.322335    0.141666   -0.246585
     18          1           0        3.493401    1.843507   -0.037359
 ---------------------------------------------------------------------

 SCF Done:  E(RHF) =  -904.147199729     a.u. after   12 cycles
 E2 =    -0.1756968418D+01 EUMP2 =    -0.90590416814730D+03

 The electronic state is 1-A.
 Alpha  occ. eigenvalues --  -92.02874 -20.56711 -20.54690 -15.64396 -15.60160
 Alpha  occ. eigenvalues --  -15.59635 -11.40099 -11.39162 -11.34865 -11.31718
 Alpha  occ. eigenvalues --  -11.31007  -9.03052  -6.71325  -6.71138  -6.70990
 Alpha  occ. eigenvalues --   -1.42098  -1.40263  -1.28330  -1.22820  -1.22443
 Alpha  occ. eigenvalues --   -1.12230  -1.03936  -0.91863  -0.87609  -0.79256
 Alpha  occ. eigenvalues --   -0.79216  -0.74408  -0.70735  -0.69370  -0.68527
 Alpha  occ. eigenvalues --   -0.64891  -0.62952  -0.61708  -0.60089  -0.58704
 Alpha  occ. eigenvalues --   -0.56970  -0.55681  -0.53474  -0.51982  -0.47551
 Alpha  occ. eigenvalues --   -0.45855  -0.45722  -0.44295  -0.42534  -0.39257
 Alpha virt. eigenvalues --    0.02107   0.04140   0.04780   0.05941   0.06645
 Alpha virt. eigenvalues --    0.07762   0.07911   0.08482   0.10095   0.10287
 Alpha virt. eigenvalues --    0.10868   0.11796   0.12561   0.13155   0.13568

 Mulliken atomic charges:
              1
     1  N   -0.237697
     2  H    0.366272
     3  C   -0.102410
     4  H    0.257296
     5  C    0.086927
     6  O   -0.394687
     7  C   -0.273490
     8  S    0.066289
     9  C   -0.103735
    10  N   -0.194629
    11  H    0.269620
    12  H    0.232363
    13  C    0.116750
    14  O   -0.412252
    15  N   -0.445403
    16  H    0.144355
    17  H    0.297002
    18  H    0.327430
 Sum of Mulliken atomic charges =   0.00000

 Dipole moment (field-independent basis, Debye):
    X=              3.8822    Y=             -4.4769    Z=             -4.1362  Tot=              7.2265
 Quadrupole moment (field-independent basis, Debye-Ang):
   XX=            -90.7330   YY=            -73.3205   ZZ=            -75.0992
   XY=              3.4983   XZ=             -1.1978   YZ=              2.0327

 Normal termination of Gaussian 09 at Mon Dec 30 09:55:39 2019.
