 Gaussian 09, Revision A.02,
 Gaussian 09:  EM64L-G09RevA.02 11-Jun-2009

 ---------------------------------------------
 #P opt=(,maxcycle=400) HF/6-31G* MaxDisk=50GB
 ---------------------------------------------

 ------------------------------------------------------------------
 ModifiedRes Rotatable Bond Optimization on bme-nova.bme.utexas.edu
 ------------------------------------------------------------------
 Symbolic Z-matrix:
 Charge =  0 Multiplicity = 1

 SCF Done:  E(RHF) =  -903.980369262     A.U. after   16 cycles
 SCF Done:  E(RHF) =  -903.997581172     A.U. after   15 cycles
 SCF Done:  E(RHF) =  -904.000734887     A.U. after   13 cycles
 SCF Done:  E(RHF) =  -904.003680108     A.U. after   17 cycles
 SCF Done:  E(RHF) =  -904.006247452     A.U. after   13 cycles
 SCF Done:  E(RHF) =  -904.007445391     A.U. after   17 cycles
 SCF Done:  E(RHF) =  -904.008018901     A.U. after   13 cycles
 SCF Done:  E(RHF) =  -904.008501076     A.U. after   13 cycles
 SCF Done:  E(RHF) =  -904.008663427     A.U. after   13 cycles
 SCF Done:  E(RHF) =  -904.008760633     A.U. after   17 cycles
 SCF Done:  E(RHF) =  -904.011120615     A.U. after   13 cycles
 SCF Done:  E(RHF) =  -904.011176551     A.U. after   13 cycles
 SCF Done:  E(RHF) =  -904.011325417     A.U. after   13 cycles
 SCF Done:  E(RHF) =  -904.011425956     A.U. after   12 cycles
 SCF Done:  E(RHF) =  -904.011456347     A.U. after   12 cycles
 SCF Done:  E(RHF) =  -904.011470074     A.U. after   12 cycles
 SCF Done:  E(RHF) =  -904.011478280     A.U. after   11 cycles
 SCF Done:  E(RHF) =  -904.011480393     A.U. after   10 cycles
 SCF Done:  E(RHF) =  -904.011481260     A.U. after   10 cycles
 SCF Done:  E(RHF) =  -904.011481502     A.U. after    9 cycles
 Optimization completed.
    -- Stationary point found.

                         Standard orientation:
 ---------------------------------------------------------------------
 Center     Atomic      Atomic             Coordinates (Angstroms)
 Number     Number       Type             X           Y           Z
 ---------------------------------------------------------------------
      1          7           0        0.972256   -0.886693    0.757314
      2          1           0        0.595996   -0.860752    1.679586
      3          6           0        0.605099    0.165421   -0.176418
      4          1           0        0.716803   -0.245206   -1.170552
      5          6           0        1.544157    1.374153   -0.029460
      6          8           0        1.190839    2.377417    0.523323
      7          6           0       -0.834750    0.613883    0.043523
      8         16           0       -1.956507   -0.821475   -0.177503
      9          6           0       -3.448550    0.001984   -0.101835
     10          7           0       -4.455990    0.527132   -0.052797
     11          1           0       -0.966843    1.028755    1.030601
     12          1           0       -1.092644    1.371862   -0.679135
     13          6           0        1.915789   -1.808338    0.474607
     14          8           0        2.539564   -1.848152   -0.547444
     15          7           0        2.763172    1.195834   -0.566599
     16          1           0        2.060018   -2.532938    1.273113
     17          1           0        3.054821    0.305763   -0.908061
     18          1           0        3.446199    1.905462   -0.420476
 ---------------------------------------------------------------------

 The electronic state is 1-A.
 Alpha  occ. eigenvalues --  -92.01090 -20.56944 -20.54873 -15.63318 -15.59691
 Alpha  occ. eigenvalues --  -15.58907 -11.38515 -11.37292 -11.32194 -11.30400
 Alpha  occ. eigenvalues --  -11.30072  -9.01998  -6.70307  -6.70117  -6.69913
 Alpha  occ. eigenvalues --   -1.43377  -1.41614  -1.28588  -1.24298  -1.23198
 Alpha  occ. eigenvalues --   -1.12245  -1.03304  -0.91356  -0.87053  -0.81771
 Alpha  occ. eigenvalues --   -0.76977  -0.75844  -0.71459  -0.69982  -0.67175
 Alpha  occ. eigenvalues --   -0.64516  -0.62830  -0.62085  -0.58995  -0.58406
 Alpha  occ. eigenvalues --   -0.57100  -0.56108  -0.53406  -0.52338  -0.47402
 Alpha  occ. eigenvalues --   -0.46509  -0.46143  -0.42869  -0.41763  -0.38697
 Alpha virt. eigenvalues --    0.12893   0.15866   0.17635   0.19444   0.20874
 Alpha virt. eigenvalues --    0.21183   0.22430   0.23472   0.24300   0.27396
 Alpha virt. eigenvalues --    0.28398   0.29671   0.32300   0.34512   0.37792

 Mulliken atomic charges:
              1
     1  N   -0.768328
     2  H    0.406899
     3  C   -0.100343
     4  H    0.253890
     5  C    0.775436
     6  O   -0.596784
     7  C   -0.492822
     8  S    0.285999
     9  C    0.084634
    10  N   -0.376530
    11  H    0.246100
    12  H    0.252393
    13  C    0.521815
    14  O   -0.579223
    15  N   -0.934316
    16  H    0.182753
    17  H    0.439024
    18  H    0.399402
 Sum of Mulliken atomic charges =   0.00000

 Dipole moment (field-independent basis, Debye):
    X=              4.1280    Y=             -2.0503    Z=              1.5060  Tot=              4.8489
 Quadrupole moment (field-independent basis, Debye-Ang):
   XX=            -89.2691   YY=            -79.2383   ZZ=            -67.5861
   XY=              6.4369   XZ=              2.5831   YZ=             -8.6396

 Normal termination of Gaussian 09 at Mon Dec 30 10:01:15 2019.
