 Gaussian 09, Revision A.02,
 Gaussian 09:  EM64L-G09RevA.02 11-Jun-2009

 ---------------------------------------------
 #P opt=(,maxcycle=400) HF/6-31G* MaxDisk=50GB
 ---------------------------------------------

 ------------------------------------------------------------------
 ModifiedRes Rotatable Bond Optimization on bme-nova.bme.utexas.edu
 ------------------------------------------------------------------
 Symbolic Z-matrix:
 Charge =  0 Multiplicity = 1

 SCF Done:  E(RHF) =  -903.990852816     A.U. after   16 cycles
 SCF Done:  E(RHF) =  -904.006127868     A.U. after   14 cycles
 SCF Done:  E(RHF) =  -904.007743581     A.U. after   14 cycles
 SCF Done:  E(RHF) =  -904.007487237     A.U. after   15 cycles
 SCF Done:  E(RHF) =  -904.008781470     A.U. after   17 cycles
 SCF Done:  E(RHF) =  -904.008891641     A.U. after   14 cycles
 SCF Done:  E(RHF) =  -904.009090223     A.U. after   15 cycles
 SCF Done:  E(RHF) =  -904.009684904     A.U. after   13 cycles
 SCF Done:  E(RHF) =  -904.010525986     A.U. after   17 cycles
 SCF Done:  E(RHF) =  -904.008813961     A.U. after   15 cycles
 SCF Done:  E(RHF) =  -904.010753807     A.U. after   15 cycles
 SCF Done:  E(RHF) =  -904.011111698     A.U. after   15 cycles
 SCF Done:  E(RHF) =  -904.011416562     A.U. after   13 cycles
 SCF Done:  E(RHF) =  -904.011456695     A.U. after   13 cycles
 SCF Done:  E(RHF) =  -904.011470121     A.U. after   11 cycles
 SCF Done:  E(RHF) =  -904.011477397     A.U. after   10 cycles
 SCF Done:  E(RHF) =  -904.011480066     A.U. after   11 cycles
 SCF Done:  E(RHF) =  -904.011481160     A.U. after   10 cycles
 SCF Done:  E(RHF) =  -904.011481467     A.U. after   10 cycles
 Optimization completed.
    -- Stationary point found.

                         Standard orientation:
 ---------------------------------------------------------------------
 Center     Atomic      Atomic             Coordinates (Angstroms)
 Number     Number       Type             X           Y           Z
 ---------------------------------------------------------------------
      1          7           0        0.972525   -0.886235    0.757614
      2          1           0        0.595834   -0.860474    1.679709
      3          6           0        0.605173    0.165620   -0.176333
      4          1           0        0.716732   -0.245252   -1.170376
      5          6           0        1.544336    1.374245   -0.029594
      6          8           0        1.191171    2.377691    0.523015
      7          6           0       -0.834646    0.614101    0.043791
      8         16           0       -1.956351   -0.821291   -0.177412
      9          6           0       -3.448490    0.001983   -0.101928
     10          7           0       -4.455916    0.527146   -0.053006
     11          1           0       -0.966752    1.028758    1.030952
     12          1           0       -1.092606    1.372153   -0.678765
     13          6           0        1.915200   -1.808692    0.474604
     14          8           0        2.538654   -1.849174   -0.547597
     15          7           0        2.763408    1.195620   -0.566443
     16          1           0        2.059123   -2.533285    1.273178
     17          1           0        3.054846    0.305804   -0.908711
     18          1           0        3.446274    1.905560   -0.421125
 ---------------------------------------------------------------------

 The electronic state is 1-A.
 Alpha  occ. eigenvalues --  -92.01091 -20.56941 -20.54871 -15.63316 -15.59693
 Alpha  occ. eigenvalues --  -15.58908 -11.38513 -11.37292 -11.32194 -11.30402
 Alpha  occ. eigenvalues --  -11.30072  -9.01999  -6.70308  -6.70118  -6.69914
 Alpha  occ. eigenvalues --   -1.43375  -1.41612  -1.28587  -1.24300  -1.23198
 Alpha  occ. eigenvalues --   -1.12245  -1.03305  -0.91358  -0.87052  -0.81772
 Alpha  occ. eigenvalues --   -0.76977  -0.75843  -0.71459  -0.69983  -0.67174
 Alpha  occ. eigenvalues --   -0.64515  -0.62831  -0.62083  -0.58994  -0.58408
 Alpha  occ. eigenvalues --   -0.57099  -0.56109  -0.53407  -0.52339  -0.47399
 Alpha  occ. eigenvalues --   -0.46508  -0.46142  -0.42867  -0.41764  -0.38697
 Alpha virt. eigenvalues --    0.12893   0.15869   0.17637   0.19444   0.20873
 Alpha virt. eigenvalues --    0.21182   0.22430   0.23472   0.24297   0.27396
 Alpha virt. eigenvalues --    0.28399   0.29669   0.32292   0.34510   0.37791

 Mulliken atomic charges:
              1
     1  N   -0.768374
     2  H    0.406911
     3  C   -0.100357
     4  H    0.253888
     5  C    0.775560
     6  O   -0.596838
     7  C   -0.492803
     8  S    0.285949
     9  C    0.084636
    10  N   -0.376514
    11  H    0.246093
    12  H    0.252405
    13  C    0.521860
    14  O   -0.579196
    15  N   -0.934344
    16  H    0.182714
    17  H    0.438968
    18  H    0.399442
 Sum of Mulliken atomic charges =   0.00000

 Dipole moment (field-independent basis, Debye):
    X=              4.1265    Y=             -2.0483    Z=              1.5035  Tot=              4.8460
 Quadrupole moment (field-independent basis, Debye-Ang):
   XX=            -89.2667   YY=            -79.2442   ZZ=            -67.5824
   XY=              6.4420   XZ=              2.5677   YZ=             -8.6447

 Normal termination of Gaussian 09 at Mon Dec 30 10:03:18 2019.
