 Gaussian 09, Revision A.02,
 Gaussian 09:  EM64L-G09RevA.02 11-Jun-2009

 ------------------------------------------------------------------
 #P MP2/6-311++G** SP SCF=(qc,maxcycle=800) Guess=Indo MaxDisk=50GB
 ------------------------------------------------------------------

 --------------------------------------------------------------------
 ModifiedRes Rotatable Bond SP Calculation on bme-nova.bme.utexas.edu
 --------------------------------------------------------------------
 Symbolic Z-matrix:
 Charge =  0 Multiplicity = 1

                         Standard orientation:
 ---------------------------------------------------------------------
 Center     Atomic      Atomic             Coordinates (Angstroms)
 Number     Number       Type             X           Y           Z
 ---------------------------------------------------------------------
      1          7           0        0.983562   -0.955890    0.701789
      2          1           0        0.612258   -0.946622    1.647105
      3          6           0        0.586021    0.140713   -0.205707
      4          1           0        0.689015   -0.240804   -1.230730
      5          6           0        1.528595    1.359543   -0.023681
      6          8           0        1.135372    2.354284    0.590802
      7          6           0       -0.873376    0.576887    0.043009
      8         16           0       -2.018006   -0.842576   -0.211328
      9          6           0       -3.500142   -0.018904   -0.094210
     10          7           0       -4.547756    0.529694   -0.017115
     11          1           0       -0.995886    0.962635    1.057478
     12          1           0       -1.140311    1.367588   -0.662097
     13          6           0        1.950099   -1.865286    0.378513
     14          8           0        2.893200   -1.631873   -0.386116
     15          7           0        2.769341    1.259915   -0.566845
     16          1           0        1.799817   -2.850059    0.848434
     17          1           0        3.127114    0.361314   -0.875983
     18          1           0        3.384310    2.054125   -0.452780
 ---------------------------------------------------------------------

 SCF Done:  E(RHF) =  -904.152017002     a.u. after   11 cycles
 E2 =    -0.1755720330D+01 EUMP2 =    -0.90590773733195D+03

 The electronic state is 1-A.
 Alpha  occ. eigenvalues --  -92.02948 -20.57805 -20.54362 -15.63373 -15.60181
 Alpha  occ. eigenvalues --  -15.59716 -11.40285 -11.38240 -11.34059 -11.31685
 Alpha  occ. eigenvalues --  -11.31561  -9.03096  -6.71355  -6.71173  -6.71019
 Alpha  occ. eigenvalues --   -1.42360  -1.39937  -1.27998  -1.22863  -1.22498
 Alpha  occ. eigenvalues --   -1.12324  -1.03698  -0.91593  -0.87530  -0.81330
 Alpha  occ. eigenvalues --   -0.76710  -0.75746  -0.71601  -0.69955  -0.67726
 Alpha  occ. eigenvalues --   -0.66014  -0.62286  -0.61419  -0.59367  -0.58000
 Alpha  occ. eigenvalues --   -0.56799  -0.56052  -0.53509  -0.51998  -0.48584
 Alpha  occ. eigenvalues --   -0.47342  -0.45882  -0.42779  -0.42393  -0.39153
 Alpha virt. eigenvalues --    0.02794   0.04229   0.05018   0.05339   0.07115
 Alpha virt. eigenvalues --    0.07462   0.08123   0.08722   0.09908   0.10439
 Alpha virt. eigenvalues --    0.10669   0.11309   0.12429   0.12711   0.13411

 Mulliken atomic charges:
              1
     1  N   -0.073940
     2  H    0.327212
     3  C   -0.433580
     4  H    0.251901
     5  C    0.263537
     6  O   -0.393506
     7  C   -0.482975
     8  S    0.099490
     9  C   -0.088277
    10  N   -0.198714
    11  H    0.264460
    12  H    0.239063
    13  C    0.281379
    14  O   -0.426139
    15  N   -0.483401
    16  H    0.168708
    17  H    0.330429
    18  H    0.354354
 Sum of Mulliken atomic charges =   0.00000

 Dipole moment (field-independent basis, Debye):
    X=              3.6153    Y=             -3.0453    Z=              0.5994  Tot=              4.7648
 Quadrupole moment (field-independent basis, Debye-Ang):
   XX=            -97.2095   YY=            -77.6456   ZZ=            -69.2757
   XY=              6.6748   XZ=              1.2659   YZ=             -8.3204

 Normal termination of Gaussian 09 at Mon Dec 30 09:50:24 2019.
