 Gaussian 09, Revision A.02,
 Gaussian 09:  EM64L-G09RevA.02 11-Jun-2009

 ------------------------------------------------------------------
 #P MP2/6-311++G** SP SCF=(qc,maxcycle=800) Guess=Indo MaxDisk=50GB
 ------------------------------------------------------------------

 --------------------------------------------------------------------
 ModifiedRes Rotatable Bond SP Calculation on bme-nova.bme.utexas.edu
 --------------------------------------------------------------------
 Symbolic Z-matrix:
 Charge =  0 Multiplicity = 1

                         Standard orientation:
 ---------------------------------------------------------------------
 Center     Atomic      Atomic             Coordinates (Angstroms)
 Number     Number       Type             X           Y           Z
 ---------------------------------------------------------------------
      1          7           0       -0.244166    0.899183    0.522640
      2          1           0        0.304922    0.842954    1.375658
      3          6           0       -0.550286   -0.323476   -0.248108
      4          1           0       -0.628344   -0.027829   -1.303395
      5          6           0       -1.910527   -0.905525    0.207284
      6          8           0       -1.953737   -1.951606    0.859714
      7          6           0        0.552218   -1.403049   -0.102088
      8         16           0        2.170047   -0.874706   -0.817118
      9          6           0        2.669567    0.291033    0.317429
     10          7           0        3.017822    1.073799    1.139397
     11          1           0        0.649823   -1.678388    0.950179
     12          1           0        0.240463   -2.284066   -0.668935
     13          6           0       -0.676524    2.135459    0.136161
     14          8           0       -1.418603    2.315000   -0.836695
     15          7           0       -3.012129   -0.201241   -0.166497
     16          1           0       -0.312155    2.960124    0.768506
     17          1           0       -2.921931    0.669240   -0.683257
     18          1           0       -3.912180   -0.562718    0.118135
 ---------------------------------------------------------------------

 SCF Done:  E(RHF) =  -904.162745100     a.u. after   11 cycles
 E2 =    -0.1758393319D+01 EUMP2 =    -0.90592113841927D+03

 The electronic state is 1-A.
 Alpha  occ. eigenvalues --  -92.03458 -20.55568 -20.54414 -15.62696 -15.60913
 Alpha  occ. eigenvalues --  -15.60046 -11.38722 -11.38182 -11.33117 -11.32804
 Alpha  occ. eigenvalues --  -11.31978  -9.03574  -6.71831  -6.71641  -6.71494
 Alpha  occ. eigenvalues --   -1.40783  -1.39781  -1.26949  -1.23686  -1.22536
 Alpha  occ. eigenvalues --   -1.12262  -1.03462  -0.92097  -0.86219  -0.80810
 Alpha  occ. eigenvalues --   -0.76371  -0.75054  -0.71388  -0.69197  -0.68053
 Alpha  occ. eigenvalues --   -0.63507  -0.63269  -0.60574  -0.59007  -0.58003
 Alpha  occ. eigenvalues --   -0.57357  -0.56220  -0.54156  -0.52781  -0.47012
 Alpha  occ. eigenvalues --   -0.46939  -0.45948  -0.42882  -0.42108  -0.39487
 Alpha virt. eigenvalues --    0.03702   0.04522   0.04987   0.05913   0.06857
 Alpha virt. eigenvalues --    0.07508   0.08212   0.09092   0.09632   0.10499
 Alpha virt. eigenvalues --    0.10998   0.11497   0.12413   0.12820   0.13513

 Mulliken atomic charges:
              1
     1  N   -0.102503
     2  H    0.344543
     3  C   -0.515483
     4  H    0.263364
     5  C    0.231587
     6  O   -0.419480
     7  C   -0.419339
     8  S    0.474970
     9  C   -0.319353
    10  N   -0.204231
    11  H    0.267680
    12  H    0.260009
    13  C    0.254837
    14  O   -0.459072
    15  N   -0.513625
    16  H    0.168502
    17  H    0.324727
    18  H    0.362866
 Sum of Mulliken atomic charges =   0.00000

 Dipole moment (field-independent basis, Debye):
    X=             -1.1071    Y=             -0.7749    Z=             -0.7786  Tot=              1.5596
 Quadrupole moment (field-independent basis, Debye-Ang):
   XX=            -77.5926   YY=            -80.5147   ZZ=            -74.7950
   XY=             -6.3943   XZ=             -3.3512   YZ=              8.8566

 Normal termination of Gaussian 09 at Tue Dec 31 09:11:20 2019.
