 Gaussian 09, Revision A.02,
 Gaussian 09:  EM64L-G09RevA.02 11-Jun-2009

 ------------------------------------------------------------------
 #P MP2/6-311++G** SP SCF=(qc,maxcycle=800) Guess=Indo MaxDisk=50GB
 ------------------------------------------------------------------

 --------------------------------------------------------------------
 ModifiedRes Rotatable Bond SP Calculation on bme-nova.bme.utexas.edu
 --------------------------------------------------------------------
 Symbolic Z-matrix:
 Charge =  0 Multiplicity = 1

                         Standard orientation:
 ---------------------------------------------------------------------
 Center     Atomic      Atomic             Coordinates (Angstroms)
 Number     Number       Type             X           Y           Z
 ---------------------------------------------------------------------
      1          7           0        0.547303    0.605847   -1.134958
      2          1           0        0.350376    0.250750   -2.065829
      3          6           0        0.408526   -0.284263    0.035738
      4          1           0        0.106820    0.339610    0.887932
      5          6           0        1.772755   -0.940549    0.354472
      6          8           0        1.992247   -2.109932    0.027397
      7          6           0       -0.648737   -1.389869   -0.205680
      8         16           0       -2.317520   -0.697496   -0.573416
      9          6           0       -2.486695    0.409400    0.706237
     10          7           0       -2.601781    1.151834    1.622245
     11          1           0       -0.359523   -2.002947   -1.062761
     12          1           0       -0.671367   -2.023858    0.683311
     13          6           0        0.955211    1.903875   -1.017255
     14          8           0        1.299641    2.410050    0.056510
     15          7           0        2.671533   -0.149058    0.997878
     16          1           0        0.957100    2.464421   -1.965483
     17          1           0        2.465554    0.831929    1.166359
     18          1           0        3.570509   -0.552837    1.222639
 ---------------------------------------------------------------------

 SCF Done:  E(RHF) =  -904.161606840     a.u. after   12 cycles
 E2 =    -0.1758625281D+01 EUMP2 =    -0.90592023212018D+03

 The electronic state is 1-A.
 Alpha  occ. eigenvalues --  -92.03087 -20.55630 -20.54310 -15.63076 -15.60441
 Alpha  occ. eigenvalues --  -15.59992 -11.38888 -11.38112 -11.32948 -11.31876
 Alpha  occ. eigenvalues --  -11.31744  -9.03216  -6.71475  -6.71288  -6.71140
 Alpha  occ. eigenvalues --   -1.40812  -1.39685  -1.27050  -1.23180  -1.22531
 Alpha  occ. eigenvalues --   -1.12127  -1.03189  -0.91999  -0.86444  -0.80890
 Alpha  occ. eigenvalues --   -0.76370  -0.74976  -0.70814  -0.70184  -0.66775
 Alpha  occ. eigenvalues --   -0.63263  -0.63062  -0.61621  -0.58992  -0.57871
 Alpha  occ. eigenvalues --   -0.56707  -0.55586  -0.53997  -0.52391  -0.46956
 Alpha  occ. eigenvalues --   -0.46245  -0.46068  -0.42816  -0.41801  -0.39469
 Alpha virt. eigenvalues --    0.02828   0.04520   0.04688   0.05995   0.06952
 Alpha virt. eigenvalues --    0.07810   0.08508   0.09306   0.09901   0.10464
 Alpha virt. eigenvalues --    0.10715   0.12014   0.12712   0.12877   0.13042

 Mulliken atomic charges:
              1
     1  N   -0.186637
     2  H    0.349817
     3  C   -0.207396
     4  H    0.282241
     5  C    0.327350
     6  O   -0.418730
     7  C   -0.646505
     8  S    0.158504
     9  C   -0.135455
    10  N   -0.186650
    11  H    0.269023
    12  H    0.244614
    13  C    0.259022
    14  O   -0.455215
    15  N   -0.491906
    16  H    0.151162
    17  H    0.314409
    18  H    0.372354
 Sum of Mulliken atomic charges =   0.00000

 Dipole moment (field-independent basis, Debye):
    X=              1.0592    Y=             -1.1536    Z=             -3.8392  Tot=              4.1464
 Quadrupole moment (field-independent basis, Debye-Ang):
   XX=            -76.2676   YY=            -86.1710   ZZ=            -67.2989
   XY=              8.9294   XZ=              7.6308   YZ=             -7.8896

 Normal termination of Gaussian 09 at Tue Dec 31 09:11:30 2019.
