 Gaussian 09, Revision A.02,
 Gaussian 09:  EM64L-G09RevA.02 11-Jun-2009

 ---------------------------------------------
 #P opt=(,maxcycle=400) HF/6-31G* MaxDisk=50GB
 ---------------------------------------------

 ------------------------------------------------------------------
 ModifiedRes Rotatable Bond Optimization on bme-nova.bme.utexas.edu
 ------------------------------------------------------------------
 Symbolic Z-matrix:
 Charge =  0 Multiplicity = 1

 SCF Done:  E(RHF) =  -903.987531061     A.U. after   16 cycles
 SCF Done:  E(RHF) =  -904.002400705     A.U. after   14 cycles
 SCF Done:  E(RHF) =  -904.005013825     A.U. after   15 cycles
 SCF Done:  E(RHF) =  -904.008817019     A.U. after   15 cycles
 SCF Done:  E(RHF) =  -904.011461615     A.U. after   15 cycles
 SCF Done:  E(RHF) =  -904.012713862     A.U. after   17 cycles
 SCF Done:  E(RHF) =  -904.012891345     A.U. after   14 cycles
 SCF Done:  E(RHF) =  -904.013214203     A.U. after   14 cycles
 SCF Done:  E(RHF) =  -904.013450201     A.U. after   13 cycles
 SCF Done:  E(RHF) =  -904.013475895     A.U. after   13 cycles
 SCF Done:  E(RHF) =  -904.013574263     A.U. after   13 cycles
 SCF Done:  E(RHF) =  -904.013615229     A.U. after   12 cycles
 SCF Done:  E(RHF) =  -904.013631072     A.U. after   12 cycles
 SCF Done:  E(RHF) =  -904.013634956     A.U. after   12 cycles
 SCF Done:  E(RHF) =  -904.013637704     A.U. after   11 cycles
 SCF Done:  E(RHF) =  -904.013638147     A.U. after   10 cycles
 SCF Done:  E(RHF) =  -904.013638309     A.U. after   10 cycles
 SCF Done:  E(RHF) =  -904.013638352     A.U. after    9 cycles
 Optimization completed.
    -- Stationary point found.

                         Standard orientation:
 ---------------------------------------------------------------------
 Center     Atomic      Atomic             Coordinates (Angstroms)
 Number     Number       Type             X           Y           Z
 ---------------------------------------------------------------------
      1          7           0        0.683775    1.118536   -0.289580
      2          1           0       -0.058036    1.227914   -0.945550
      3          6           0        0.655280   -0.023305    0.603193
      4          1           0        1.235349    0.249080    1.476739
      5          6           0        1.300953   -1.271019   -0.015775
      6          8           0        0.654167   -2.265281   -0.210935
      7          6           0       -0.760387   -0.333125    1.076833
      8         16           0       -1.912901   -0.776492   -0.288526
      9          6           0       -3.012908    0.527756   -0.150651
     10          7           0       -3.747864    1.394182   -0.090109
     11          1           0       -0.738717   -1.179450    1.744536
     12          1           0       -1.171070    0.517995    1.597788
     13          6           0        1.736707    1.953221   -0.365900
     14          8           0        2.750928    1.827535    0.262510
     15          7           0        2.607453   -1.158469   -0.292253
     16          1           0        1.583613    2.773941   -1.063319
     17          1           0        3.118949   -0.327475   -0.088503
     18          1           0        3.074152   -1.937084   -0.700468
 ---------------------------------------------------------------------

 The electronic state is 1-A.
 Alpha  occ. eigenvalues --  -92.00887 -20.56492 -20.55082 -15.62678 -15.59761
 Alpha  occ. eigenvalues --  -15.58732 -11.38089 -11.37288 -11.31852 -11.30459
 Alpha  occ. eigenvalues --  -11.29875  -9.01706  -6.69987  -6.69798  -6.69607
 Alpha  occ. eigenvalues --   -1.42943  -1.41664  -1.28166  -1.24220  -1.23246
 Alpha  occ. eigenvalues --   -1.11854  -1.03075  -0.91571  -0.86699  -0.81413
 Alpha  occ. eigenvalues --   -0.77455  -0.75566  -0.71205  -0.69782  -0.66924
 Alpha  occ. eigenvalues --   -0.64078  -0.63061  -0.60507  -0.59497  -0.58657
 Alpha  occ. eigenvalues --   -0.57502  -0.55686  -0.52797  -0.52567  -0.47579
 Alpha  occ. eigenvalues --   -0.46024  -0.45693  -0.42897  -0.41552  -0.38586
 Alpha virt. eigenvalues --    0.13442   0.15897   0.18658   0.19700   0.20247
 Alpha virt. eigenvalues --    0.22227   0.23090   0.23824   0.24876   0.27934
 Alpha virt. eigenvalues --    0.28427   0.30352   0.32400   0.34270   0.36973

 Mulliken atomic charges:
              1
     1  N   -0.765661
     2  H    0.419882
     3  C   -0.081438
     4  H    0.251388
     5  C    0.780339
     6  O   -0.607494
     7  C   -0.501426
     8  S    0.307890
     9  C    0.066421
    10  N   -0.391707
    11  H    0.251941
    12  H    0.248123
    13  C    0.519777
    14  O   -0.587853
    15  N   -0.938478
    16  H    0.183889
    17  H    0.442392
    18  H    0.402014
 Sum of Mulliken atomic charges =   0.00000

 Dipole moment (field-independent basis, Debye):
    X=              3.1456    Y=              0.2662    Z=             -0.0491  Tot=              3.1572
 Quadrupole moment (field-independent basis, Debye-Ang):
   XX=            -87.0042   YY=            -79.3872   ZZ=            -65.8410
   XY=              0.1837   XZ=             -4.6210   YZ=             -4.7058

 Normal termination of Gaussian 09 at Tue Dec 31 08:58:29 2019.
