 Gaussian 09, Revision A.02,
 Gaussian 09:  EM64L-G09RevA.02 11-Jun-2009

 ------------------------------------------------------------------
 #P MP2/6-311++G** SP SCF=(qc,maxcycle=800) Guess=Indo MaxDisk=50GB
 ------------------------------------------------------------------

 --------------------------------------------------------------------
 ModifiedRes Rotatable Bond SP Calculation on bme-nova.bme.utexas.edu
 --------------------------------------------------------------------
 Symbolic Z-matrix:
 Charge =  0 Multiplicity = 1

                         Standard orientation:
 ---------------------------------------------------------------------
 Center     Atomic      Atomic             Coordinates (Angstroms)
 Number     Number       Type             X           Y           Z
 ---------------------------------------------------------------------
      1          7           0       -0.847976   -1.154752   -0.270835
      2          1           0       -0.111332   -1.378174   -0.934622
      3          6           0       -0.659946   -0.004115    0.641282
      4          1           0       -1.280857   -0.172065    1.533097
      5          6           0       -1.154331    1.288954   -0.069824
      6          8           0       -0.393830    2.221191   -0.328734
      7          6           0        0.803899    0.080372    1.136976
      8         16           0        2.036233    0.789857   -0.062998
      9          6           0        2.995615   -0.603550   -0.263373
     10          7           0        3.670116   -1.573014   -0.371690
     11          1           0        0.817739    0.696228    2.039110
     12          1           0        1.166400   -0.923231    1.377033
     13          6           0       -2.020747   -1.847177   -0.367396
     14          8           0       -3.033938   -1.552857    0.276447
     15          7           0       -2.481325    1.332934   -0.368522
     16          1           0       -1.988542   -2.694146   -1.070801
     17          1           0       -3.117288    0.597665   -0.073924
     18          1           0       -2.816353    2.166267   -0.832304
 ---------------------------------------------------------------------

 SCF Done:  E(RHF) =  -904.158727087     a.u. after   11 cycles
 E2 =    -0.1757282882D+01 EUMP2 =    -0.90591600996892D+03

 The electronic state is 1-A.
 Alpha  occ. eigenvalues --  -92.02275 -20.56293 -20.54913 -15.63494 -15.60135
 Alpha  occ. eigenvalues --  -15.59585 -11.39523 -11.38714 -11.33922 -11.31923
 Alpha  occ. eigenvalues --  -11.31138  -9.02338  -6.70559  -6.70371  -6.70225
 Alpha  occ. eigenvalues --   -1.41538  -1.40531  -1.27522  -1.22694  -1.22437
 Alpha  occ. eigenvalues --   -1.11653  -1.03351  -0.91979  -0.86765  -0.81087
 Alpha  occ. eigenvalues --   -0.77011  -0.75411  -0.71001  -0.69832  -0.67565
 Alpha  occ. eigenvalues --   -0.64024  -0.62843  -0.61021  -0.59554  -0.58717
 Alpha  occ. eigenvalues --   -0.57197  -0.55901  -0.52859  -0.51951  -0.47864
 Alpha  occ. eigenvalues --   -0.46733  -0.45103  -0.43285  -0.42645  -0.38286
 Alpha virt. eigenvalues --    0.03199   0.03813   0.04722   0.06154   0.06804
 Alpha virt. eigenvalues --    0.07686   0.08342   0.09013   0.09664   0.10915
 Alpha virt. eigenvalues --    0.11462   0.11630   0.12393   0.13061   0.13371

 Mulliken atomic charges:
              1
     1  N   -0.144492
     2  H    0.313504
     3  C    0.127712
     4  H    0.307765
     5  C    0.001996
     6  O   -0.390845
     7  C   -0.768008
     8  S    0.444442
     9  C   -0.331983
    10  N   -0.202030
    11  H    0.251106
    12  H    0.220200
    13  C    0.303087
    14  O   -0.459298
    15  N   -0.509893
    16  H    0.161762
    17  H    0.320091
    18  H    0.354884
 Sum of Mulliken atomic charges =   0.00000

 Dipole moment (field-independent basis, Debye):
    X=             -3.2065    Y=             -0.3586    Z=              0.5489  Tot=              3.2728
 Quadrupole moment (field-independent basis, Debye-Ang):
   XX=            -91.8715   YY=            -79.2286   ZZ=            -67.1048
   XY=              1.2268   XZ=              7.1067   YZ=              3.9557

 Normal termination of Gaussian 09 at Tue Dec 31 09:03:26 2019.
