 Gaussian 09, Revision A.02,
 Gaussian 09:  EM64L-G09RevA.02 11-Jun-2009

 ------------------------------------------------------------------
 #P MP2/6-311++G** SP SCF=(qc,maxcycle=800) Guess=Indo MaxDisk=50GB
 ------------------------------------------------------------------

 --------------------------------------------------------------------
 ModifiedRes Rotatable Bond SP Calculation on bme-nova.bme.utexas.edu
 --------------------------------------------------------------------
 Symbolic Z-matrix:
 Charge =  0 Multiplicity = 1

                         Standard orientation:
 ---------------------------------------------------------------------
 Center     Atomic      Atomic             Coordinates (Angstroms)
 Number     Number       Type             X           Y           Z
 ---------------------------------------------------------------------
      1          7           0       -1.432954   -1.155220   -0.390669
      2          1           0       -0.912616   -1.629783   -1.123439
      3          6           0       -0.720693   -0.198283    0.491145
      4          1           0       -1.264705   -0.134289    1.444774
      5          6           0       -0.756066    1.200185   -0.199621
      6          8           0        0.253879    1.791381   -0.566645
      7          6           0        0.708747   -0.718551    0.852857
      8         16           0        2.229099    0.352417    0.813288
      9          6           0        3.101077   -0.432914   -0.423371
     10          7           0        3.706905   -1.025499   -1.255130
     11          1           0        0.645540   -1.087846    1.880912
     12          1           0        0.948054   -1.529180    0.159605
     13          6           0       -2.787086   -1.332414   -0.367961
     14          8           0       -3.543668   -0.689654    0.368043
     15          7           0       -1.992724    1.746049   -0.362364
     16          1           0       -3.151930   -2.102410   -1.066186
     17          1           0       -2.825057    1.312240    0.025738
     18          1           0       -2.031019    2.653326   -0.806357
 ---------------------------------------------------------------------

 SCF Done:  E(RHF) =  -904.134547603     a.u. after   11 cycles
 E2 =    -0.1758535173D+01 EUMP2 =    -0.90589308277565D+03

 The electronic state is 1-A.
 Alpha  occ. eigenvalues --  -92.01651 -20.56531 -20.53985 -15.64010 -15.59430
 Alpha  occ. eigenvalues --  -15.59095 -11.39802 -11.38026 -11.34040 -11.31896
 Alpha  occ. eigenvalues --  -11.30898  -9.01736  -6.69972  -6.69802  -6.69643
 Alpha  occ. eigenvalues --   -1.41680  -1.40103  -1.27714  -1.22033  -1.21764
 Alpha  occ. eigenvalues --   -1.11129  -1.03052  -0.91780  -0.86796  -0.81076
 Alpha  occ. eigenvalues --   -0.76852  -0.74857  -0.70743  -0.69600  -0.67673
 Alpha  occ. eigenvalues --   -0.63873  -0.62612  -0.61987  -0.58726  -0.58020
 Alpha  occ. eigenvalues --   -0.56529  -0.55480  -0.51937  -0.51281  -0.47760
 Alpha  occ. eigenvalues --   -0.46932  -0.44783  -0.43112  -0.42282  -0.36537
 Alpha virt. eigenvalues --    0.02653   0.03833   0.04699   0.05918   0.06940
 Alpha virt. eigenvalues --    0.07442   0.08075   0.08910   0.09516   0.10165
 Alpha virt. eigenvalues --    0.11050   0.11627   0.11914   0.12704   0.13380

 Mulliken atomic charges:
              1
     1  N   -0.209675
     2  H    0.347286
     3  C   -0.157038
     4  H    0.288264
     5  C   -0.000730
     6  O   -0.335967
     7  C   -0.561351
     8  S    0.759761
     9  C   -0.438738
    10  N   -0.193069
    11  H    0.227538
    12  H    0.132187
    13  C    0.291514
    14  O   -0.462448
    15  N   -0.521953
    16  H    0.160669
    17  H    0.318403
    18  H    0.355347
 Sum of Mulliken atomic charges =   0.00000

 Dipole moment (field-independent basis, Debye):
    X=             -4.3152    Y=             -1.8960    Z=              1.3183  Tot=              4.8943
 Quadrupole moment (field-independent basis, Debye-Ang):
   XX=            -95.8883   YY=            -68.7741   ZZ=            -71.6302
   XY=              2.0847   XZ=             14.3451   YZ=              2.1601

 Normal termination of Gaussian 09 at Tue Dec 31 09:04:08 2019.
