 Gaussian 09, Revision A.02,
 Gaussian 09:  EM64L-G09RevA.02 11-Jun-2009

 ---------------------------------------------
 #P opt=(,maxcycle=400) HF/6-31G* MaxDisk=50GB
 ---------------------------------------------

 ------------------------------------------------------------------
 ModifiedRes Rotatable Bond Optimization on bme-nova.bme.utexas.edu
 ------------------------------------------------------------------
 Symbolic Z-matrix:
 Charge =  0 Multiplicity = 1

 SCF Done:  E(RHF) =  -903.990924548     A.U. after   16 cycles
 SCF Done:  E(RHF) =  -904.005788869     A.U. after   14 cycles
 SCF Done:  E(RHF) =  -904.009121797     A.U. after   15 cycles
 SCF Done:  E(RHF) =  -904.011980492     A.U. after   17 cycles
 SCF Done:  E(RHF) =  -904.012417152     A.U. after   15 cycles
 SCF Done:  E(RHF) =  -904.012838372     A.U. after   14 cycles
 SCF Done:  E(RHF) =  -904.013456209     A.U. after   14 cycles
 SCF Done:  E(RHF) =  -904.013529200     A.U. after   13 cycles
 SCF Done:  E(RHF) =  -904.013576321     A.U. after   12 cycles
 SCF Done:  E(RHF) =  -904.013585753     A.U. after   12 cycles
 SCF Done:  E(RHF) =  -904.013617833     A.U. after   11 cycles
 SCF Done:  E(RHF) =  -904.013632398     A.U. after   11 cycles
 SCF Done:  E(RHF) =  -904.013636031     A.U. after   11 cycles
 SCF Done:  E(RHF) =  -904.013637778     A.U. after   10 cycles
 SCF Done:  E(RHF) =  -904.013638192     A.U. after    9 cycles
 SCF Done:  E(RHF) =  -904.013638324     A.U. after    9 cycles
 SCF Done:  E(RHF) =  -904.013638360     A.U. after    9 cycles
 Optimization completed.
    -- Stationary point found.

                         Standard orientation:
 ---------------------------------------------------------------------
 Center     Atomic      Atomic             Coordinates (Angstroms)
 Number     Number       Type             X           Y           Z
 ---------------------------------------------------------------------
      1          7           0        0.683583    1.118594   -0.289258
      2          1           0       -0.058247    1.228001   -0.945210
      3          6           0        0.655227   -0.023421    0.603222
      4          1           0        1.235420    0.248773    1.476768
      5          6           0        1.300955   -1.271041   -0.015934
      6          8           0        0.654286   -2.265432   -0.210851
      7          6           0       -0.760349   -0.333406    1.076985
      8         16           0       -1.913046   -0.776737   -0.288267
      9          6           0       -3.012545    0.528010   -0.150767
     10          7           0       -3.747263    1.394660   -0.090682
     11          1           0       -0.738543   -1.179848    1.744532
     12          1           0       -1.171061    0.517582    1.598138
     13          6           0        1.736479    1.953330   -0.365637
     14          8           0        2.750842    1.827590    0.262535
     15          7           0        2.607332   -1.158255   -0.292832
     16          1           0        1.583164    2.774176   -1.062858
     17          1           0        3.118782   -0.327206   -0.089165
     18          1           0        3.074036   -1.936788   -0.701210
 ---------------------------------------------------------------------

 The electronic state is 1-A.
 Alpha  occ. eigenvalues --  -92.00887 -20.56493 -20.55082 -15.62678 -15.59761
 Alpha  occ. eigenvalues --  -15.58732 -11.38089 -11.37288 -11.31852 -11.30459
 Alpha  occ. eigenvalues --  -11.29875  -9.01707  -6.69987  -6.69798  -6.69607
 Alpha  occ. eigenvalues --   -1.42944  -1.41663  -1.28167  -1.24220  -1.23246
 Alpha  occ. eigenvalues --   -1.11854  -1.03075  -0.91571  -0.86699  -0.81413
 Alpha  occ. eigenvalues --   -0.77455  -0.75567  -0.71204  -0.69783  -0.66924
 Alpha  occ. eigenvalues --   -0.64078  -0.63060  -0.60508  -0.59497  -0.58657
 Alpha  occ. eigenvalues --   -0.57502  -0.55686  -0.52797  -0.52568  -0.47580
 Alpha  occ. eigenvalues --   -0.46025  -0.45693  -0.42897  -0.41552  -0.38586
 Alpha virt. eigenvalues --    0.13441   0.15897   0.18658   0.19700   0.20244
 Alpha virt. eigenvalues --    0.22228   0.23090   0.23824   0.24875   0.27934
 Alpha virt. eigenvalues --    0.28427   0.30352   0.32399   0.34271   0.36975

 Mulliken atomic charges:
              1
     1  N   -0.765650
     2  H    0.419874
     3  C   -0.081419
     4  H    0.251378
     5  C    0.780332
     6  O   -0.607507
     7  C   -0.501431
     8  S    0.307890
     9  C    0.066420
    10  N   -0.391712
    11  H    0.251953
    12  H    0.248122
    13  C    0.519769
    14  O   -0.587845
    15  N   -0.938482
    16  H    0.183892
    17  H    0.442399
    18  H    0.402015
 Sum of Mulliken atomic charges =   0.00000

 Dipole moment (field-independent basis, Debye):
    X=              3.1444    Y=              0.2659    Z=             -0.0486  Tot=              3.1560
 Quadrupole moment (field-independent basis, Debye-Ang):
   XX=            -86.9995   YY=            -79.3906   ZZ=            -65.8410
   XY=              0.1863   XZ=             -4.6257   YZ=             -4.7028

 Normal termination of Gaussian 09 at Tue Dec 31 08:58:26 2019.
