 Gaussian 09, Revision A.02,
 Gaussian 09:  EM64L-G09RevA.02 11-Jun-2009

 ------------------------------------------------------------------
 #P MP2/6-311++G** SP SCF=(qc,maxcycle=800) Guess=Indo MaxDisk=50GB
 ------------------------------------------------------------------

 --------------------------------------------------------------------
 ModifiedRes Rotatable Bond SP Calculation on bme-nova.bme.utexas.edu
 --------------------------------------------------------------------
 Symbolic Z-matrix:
 Charge =  0 Multiplicity = 1

                         Standard orientation:
 ---------------------------------------------------------------------
 Center     Atomic      Atomic             Coordinates (Angstroms)
 Number     Number       Type             X           Y           Z
 ---------------------------------------------------------------------
      1          7           0        1.492001   -0.680736    1.082981
      2          1           0        1.623122   -0.396480    2.049393
      3          6           0        0.437428   -0.036550    0.274864
      4          1           0        0.207212   -0.721653   -0.552790
      5          6           0        0.949682    1.304487   -0.301000
      6          8           0        0.669516    2.370090    0.255500
      7          6           0       -0.819144    0.187733    1.142745
      8         16           0       -2.266077    0.669138    0.104344
      9          6           0       -2.685882   -0.887983   -0.436225
     10          7           0       -2.990626   -1.966826   -0.821319
     11          1           0       -1.079370   -0.709137    1.710275
     12          1           0       -0.631644    0.993622    1.856662
     13          6           0        2.448985   -1.474198    0.516179
     14          8           0        2.493445   -1.722195   -0.693584
     15          7           0        1.726588    1.205329   -1.412545
     16          1           0        3.179827   -1.881528    1.232757
     17          1           0        2.004062    0.294342   -1.767014
     18          1           0        2.068184    2.066167   -1.817310
 ---------------------------------------------------------------------

 SCF Done:  E(RHF) =  -904.163132867     a.u. after   11 cycles
 E2 =    -0.1757501925D+01 EUMP2 =    -0.90592063479165D+03

 The electronic state is 1-A.
 Alpha  occ. eigenvalues --  -92.02783 -20.56072 -20.54486 -15.63472 -15.60300
 Alpha  occ. eigenvalues --  -15.59958 -11.39278 -11.38244 -11.32940 -11.31436
 Alpha  occ. eigenvalues --  -11.31370  -9.02883  -6.71124  -6.70947  -6.70795
 Alpha  occ. eigenvalues --   -1.41184  -1.39863  -1.27359  -1.22806  -1.22717
 Alpha  occ. eigenvalues --   -1.12163  -1.02859  -0.91947  -0.86546  -0.81200
 Alpha  occ. eigenvalues --   -0.76760  -0.75157  -0.71059  -0.69603  -0.67573
 Alpha  occ. eigenvalues --   -0.63507  -0.63179  -0.61364  -0.58551  -0.57376
 Alpha  occ. eigenvalues --   -0.56942  -0.55893  -0.53405  -0.52038  -0.47294
 Alpha  occ. eigenvalues --   -0.47026  -0.45340  -0.43093  -0.42269  -0.39065
 Alpha virt. eigenvalues --    0.02463   0.04508   0.04782   0.05935   0.06996
 Alpha virt. eigenvalues --    0.07879   0.08398   0.09048   0.09890   0.10576
 Alpha virt. eigenvalues --    0.11366   0.11529   0.12459   0.13087   0.13312

 Mulliken atomic charges:
              1
     1  N   -0.120799
     2  H    0.337477
     3  C   -0.404868
     4  H    0.344702
     5  C   -0.048750
     6  O   -0.400640
     7  C   -0.390159
     8  S    0.576378
     9  C   -0.522811
    10  N   -0.150270
    11  H    0.239437
    12  H    0.284806
    13  C    0.302469
    14  O   -0.442761
    15  N   -0.418660
    16  H    0.153636
    17  H    0.310781
    18  H    0.350034
 Sum of Mulliken atomic charges =   0.00000

 Dipole moment (field-independent basis, Debye):
    X=              3.3400    Y=              1.0186    Z=              3.5365  Tot=              4.9699
 Quadrupole moment (field-independent basis, Debye-Ang):
   XX=            -76.5648   YY=            -89.3053   ZZ=            -63.7172
   XY=             -5.6736   XZ=              0.9895   YZ=            -11.5902

 Normal termination of Gaussian 09 at Tue Dec 31 09:04:02 2019.
