 Gaussian 09, Revision A.02,
 Gaussian 09:  EM64L-G09RevA.02 11-Jun-2009

 ---------------------------------------------
 #P opt=(,maxcycle=400) HF/6-31G* MaxDisk=50GB
 ---------------------------------------------

 ------------------------------------------------------------------
 ModifiedRes Rotatable Bond Optimization on bme-nova.bme.utexas.edu
 ------------------------------------------------------------------
 Symbolic Z-matrix:
 Charge =  0 Multiplicity = 1

 SCF Done:  E(RHF) =  -903.989194142     A.U. after   16 cycles
 SCF Done:  E(RHF) =  -904.006029674     A.U. after   14 cycles
 SCF Done:  E(RHF) =  -904.009922266     A.U. after   16 cycles
 SCF Done:  E(RHF) =  -904.012660020     A.U. after   16 cycles
 SCF Done:  E(RHF) =  -904.013089447     A.U. after   14 cycles
 SCF Done:  E(RHF) =  -904.013494323     A.U. after   14 cycles
 SCF Done:  E(RHF) =  -904.013634963     A.U. after   14 cycles
 SCF Done:  E(RHF) =  -904.013893271     A.U. after   12 cycles
 SCF Done:  E(RHF) =  -904.013893902     A.U. after   12 cycles
 SCF Done:  E(RHF) =  -904.013911057     A.U. after   12 cycles
 SCF Done:  E(RHF) =  -904.013912878     A.U. after   11 cycles
 SCF Done:  E(RHF) =  -904.013912113     A.U. after   11 cycles
 SCF Done:  E(RHF) =  -904.013914616     A.U. after   10 cycles
 SCF Done:  E(RHF) =  -904.013914710     A.U. after    9 cycles
 SCF Done:  E(RHF) =  -904.013914803     A.U. after    9 cycles
 Optimization completed.
    -- Stationary point found.

                         Standard orientation:
 ---------------------------------------------------------------------
 Center     Atomic      Atomic             Coordinates (Angstroms)
 Number     Number       Type             X           Y           Z
 ---------------------------------------------------------------------
      1          7           0       -0.310833    0.912042    0.498283
      2          1           0        0.265411    0.862843    1.309236
      3          6           0       -0.571404   -0.295229   -0.263988
      4          1           0       -0.706925    0.006309   -1.293682
      5          6           0       -1.860720   -0.979318    0.220574
      6          8           0       -1.830122   -2.008292    0.837131
      7          6           0        0.586139   -1.284120   -0.164683
      8         16           0        2.151885   -0.694748   -0.908341
      9          6           0        2.756665    0.251547    0.376857
     10          7           0        3.160001    0.881345    1.234352
     11          1           0        0.768323   -1.589444    0.854066
     12          1           0        0.342984   -2.176935   -0.722022
     13          6           0       -0.822505    2.108486    0.151440
     14          8           0       -1.588318    2.281093   -0.755550
     15          7           0       -2.990350   -0.334420   -0.114915
     16          1           0       -0.474858    2.922875    0.782669
     17          1           0       -2.966868    0.567202   -0.540312
     18          1           0       -3.851483   -0.680252    0.245613
 ---------------------------------------------------------------------

 The electronic state is 1-A.
 Alpha  occ. eigenvalues --  -92.01534 -20.56118 -20.54466 -15.62384 -15.59762
 Alpha  occ. eigenvalues --  -15.59211 -11.37663 -11.36826 -11.31557 -11.31116
 Alpha  occ. eigenvalues --  -11.30688  -9.02436  -6.70744  -6.70548  -6.70352
 Alpha  occ. eigenvalues --   -1.42551  -1.41137  -1.27860  -1.25268  -1.22717
 Alpha  occ. eigenvalues --   -1.12305  -1.03232  -0.91699  -0.86306  -0.81119
 Alpha  occ. eigenvalues --   -0.76715  -0.75223  -0.71339  -0.69132  -0.67527
 Alpha  occ. eigenvalues --   -0.63660  -0.63431  -0.60082  -0.59476  -0.58286
 Alpha  occ. eigenvalues --   -0.57134  -0.56455  -0.53931  -0.53148  -0.47096
 Alpha  occ. eigenvalues --   -0.46725  -0.45576  -0.42391  -0.41374  -0.39099
 Alpha virt. eigenvalues --    0.12162   0.16243   0.18114   0.19357   0.20563
 Alpha virt. eigenvalues --    0.21745   0.22688   0.24328   0.25125   0.27291
 Alpha virt. eigenvalues --    0.29342   0.29547   0.32326   0.33668   0.37094

 Mulliken atomic charges:
              1
     1  N   -0.771000
     2  H    0.414012
     3  C   -0.064839
     4  H    0.249130
     5  C    0.771559
     6  O   -0.603429
     7  C   -0.521025
     8  S    0.295734
     9  C    0.098931
    10  N   -0.398005
    11  H    0.254022
    12  H    0.251826
    13  C    0.520583
    14  O   -0.587277
    15  N   -0.936798
    16  H    0.186962
    17  H    0.441627
    18  H    0.397985
 Sum of Mulliken atomic charges =   0.00000

 Dipole moment (field-independent basis, Debye):
    X=             -1.4432    Y=             -0.2230    Z=             -0.6294  Tot=              1.5902
 Quadrupole moment (field-independent basis, Debye-Ang):
   XX=            -76.6735   YY=            -78.6911   ZZ=            -73.3723
   XY=             -4.9450   XZ=             -5.2706   YZ=              7.7260

 Normal termination of Gaussian 09 at Tue Dec 31 09:07:17 2019.
