 Gaussian 09, Revision A.02,
 Gaussian 09:  EM64L-G09RevA.02 11-Jun-2009

 ------------------------------------------------------------------
 #P MP2/6-311++G** SP SCF=(qc,maxcycle=800) Guess=Indo MaxDisk=50GB
 ------------------------------------------------------------------

 --------------------------------------------------------------------
 ModifiedRes Rotatable Bond SP Calculation on bme-nova.bme.utexas.edu
 --------------------------------------------------------------------
 Symbolic Z-matrix:
 Charge =  0 Multiplicity = 1

                         Standard orientation:
 ---------------------------------------------------------------------
 Center     Atomic      Atomic             Coordinates (Angstroms)
 Number     Number       Type             X           Y           Z
 ---------------------------------------------------------------------
      1          7           0        0.806347    0.834249   -0.990540
      2          1           0        0.650550    0.696788   -1.984692
      3          6           0        0.427815   -0.223807   -0.031230
      4          1           0        0.139872    0.271689    0.906782
      5          6           0        1.646231   -1.139377    0.237204
      6          8           0        1.721534   -2.247653   -0.299741
      7          6           0       -0.750265   -1.079898   -0.550262
      8         16           0       -2.225093   -0.023796   -0.858801
      9          6           0       -2.780586    0.117276    0.741526
     10          7           0       -3.128503    0.234722    1.868189
     11          1           0       -0.490256   -1.568998   -1.491711
     12          1           0       -0.952563   -1.857431    0.189715
     13          6           0        1.386643    2.003673   -0.589253
     14          8           0        1.696815    2.238253    0.584353
     15          7           0        2.587955   -0.636937    1.079206
     16          1           0        1.561398    2.723634   -1.404485
     17          1           0        2.513951    0.315543    1.425927
     18          1           0        3.392106   -1.216729    1.276487
 ---------------------------------------------------------------------

 SCF Done:  E(RHF) =  -904.161723973     a.u. after   12 cycles
 E2 =    -0.1757430677D+01 EUMP2 =    -0.90591915464933D+03

 The electronic state is 1-A.
 Alpha  occ. eigenvalues --  -92.03111 -20.55965 -20.54367 -15.63353 -15.60315
 Alpha  occ. eigenvalues --  -15.60045 -11.39202 -11.38133 -11.33022 -11.31841
 Alpha  occ. eigenvalues --  -11.31703  -9.03256  -6.71514  -6.71330  -6.71182
 Alpha  occ. eigenvalues --   -1.41085  -1.39779  -1.27283  -1.23069  -1.22595
 Alpha  occ. eigenvalues --   -1.12347  -1.03307  -0.91900  -0.86684  -0.80989
 Alpha  occ. eigenvalues --   -0.76444  -0.75090  -0.71239  -0.70423  -0.67155
 Alpha  occ. eigenvalues --   -0.63534  -0.62548  -0.61621  -0.59279  -0.57761
 Alpha  occ. eigenvalues --   -0.56826  -0.55871  -0.53971  -0.52383  -0.47194
 Alpha  occ. eigenvalues --   -0.46542  -0.46098  -0.42859  -0.41966  -0.39455
 Alpha virt. eigenvalues --    0.02593   0.04553   0.04663   0.06052   0.06868
 Alpha virt. eigenvalues --    0.07918   0.08266   0.09155   0.09493   0.10448
 Alpha virt. eigenvalues --    0.10803   0.11663   0.12325   0.12906   0.13022

 Mulliken atomic charges:
              1
     1  N   -0.154377
     2  H    0.345187
     3  C   -0.484764
     4  H    0.306252
     5  C    0.301700
     6  O   -0.413465
     7  C   -0.523343
     8  S    0.472293
     9  C   -0.407284
    10  N   -0.159675
    11  H    0.297440
    12  H    0.242735
    13  C    0.266290
    14  O   -0.453912
    15  N   -0.472188
    16  H    0.156787
    17  H    0.313062
    18  H    0.367264
 Sum of Mulliken atomic charges =   0.00000

 Dipole moment (field-independent basis, Debye):
    X=              1.9911    Y=              0.6938    Z=             -4.3168  Tot=              4.8043
 Quadrupole moment (field-independent basis, Debye-Ang):
   XX=            -79.3059   YY=            -82.4044   ZZ=            -71.0464
   XY=              3.6881   XZ=              9.2654   YZ=             -9.8186

 Normal termination of Gaussian 09 at Tue Dec 31 09:12:00 2019.
