 Gaussian 09, Revision A.02,
 Gaussian 09:  EM64L-G09RevA.02 11-Jun-2009

 ---------------------------------------------
 #P opt=(,maxcycle=400) HF/6-31G* MaxDisk=50GB
 ---------------------------------------------

 ------------------------------------------------------------------
 ModifiedRes Rotatable Bond Optimization on bme-nova.bme.utexas.edu
 ------------------------------------------------------------------
 Symbolic Z-matrix:
 Charge =  0 Multiplicity = 1

 SCF Done:  E(RHF) =  -903.996430434     A.U. after   16 cycles
 SCF Done:  E(RHF) =  -904.009856299     A.U. after   14 cycles
 SCF Done:  E(RHF) =  -904.011059935     A.U. after   16 cycles
 SCF Done:  E(RHF) =  -904.010981809     A.U. after   15 cycles
 SCF Done:  E(RHF) =  -904.011170546     A.U. after   14 cycles
 SCF Done:  E(RHF) =  -904.011445167     A.U. after   13 cycles
 SCF Done:  E(RHF) =  -904.011446835     A.U. after   12 cycles
 SCF Done:  E(RHF) =  -904.011473578     A.U. after   12 cycles
 SCF Done:  E(RHF) =  -904.011479717     A.U. after   11 cycles
 SCF Done:  E(RHF) =  -904.011480315     A.U. after   10 cycles
 SCF Done:  E(RHF) =  -904.011480944     A.U. after   10 cycles
 SCF Done:  E(RHF) =  -904.011481396     A.U. after   11 cycles
 SCF Done:  E(RHF) =  -904.011481481     A.U. after    9 cycles
 Optimization completed.
    -- Stationary point found.

                         Standard orientation:
 ---------------------------------------------------------------------
 Center     Atomic      Atomic             Coordinates (Angstroms)
 Number     Number       Type             X           Y           Z
 ---------------------------------------------------------------------
      1          7           0        0.972426   -0.886811    0.757273
      2          1           0        0.597582   -0.860037    1.680110
      3          6           0        0.605021    0.165504   -0.176096
      4          1           0        0.716247   -0.244956   -1.170350
      5          6           0        1.544152    1.374273   -0.029444
      6          8           0        1.191028    2.377611    0.523375
      7          6           0       -0.834808    0.613798    0.044528
      8         16           0       -1.956458   -0.821656   -0.176405
      9          6           0       -3.448563    0.001889   -0.102454
     10          7           0       -4.455806    0.527520   -0.054459
     11          1           0       -0.966632    1.028377    1.031761
     12          1           0       -1.093033    1.371910   -0.677867
     13          6           0        1.915934   -1.808419    0.474200
     14          8           0        2.539039   -1.848509   -0.548224
     15          7           0        2.762982    1.195983   -0.566942
     16          1           0        2.060663   -2.532819    1.272808
     17          1           0        3.054500    0.306156   -0.909119
     18          1           0        3.445834    1.905937   -0.421579
 ---------------------------------------------------------------------

 The electronic state is 1-A.
 Alpha  occ. eigenvalues --  -92.01088 -20.56945 -20.54873 -15.63317 -15.59694
 Alpha  occ. eigenvalues --  -15.58906 -11.38515 -11.37294 -11.32194 -11.30399
 Alpha  occ. eigenvalues --  -11.30070  -9.01996  -6.70305  -6.70115  -6.69911
 Alpha  occ. eigenvalues --   -1.43378  -1.41614  -1.28588  -1.24297  -1.23200
 Alpha  occ. eigenvalues --   -1.12243  -1.03302  -0.91355  -0.87053  -0.81773
 Alpha  occ. eigenvalues --   -0.76979  -0.75844  -0.71455  -0.69984  -0.67174
 Alpha  occ. eigenvalues --   -0.64517  -0.62828  -0.62085  -0.58994  -0.58409
 Alpha  occ. eigenvalues --   -0.57099  -0.56107  -0.53404  -0.52336  -0.47404
 Alpha  occ. eigenvalues --   -0.46508  -0.46142  -0.42869  -0.41764  -0.38695
 Alpha virt. eigenvalues --    0.12896   0.15865   0.17634   0.19445   0.20877
 Alpha virt. eigenvalues --    0.21183   0.22432   0.23475   0.24296   0.27395
 Alpha virt. eigenvalues --    0.28396   0.29670   0.32295   0.34514   0.37790

 Mulliken atomic charges:
              1
     1  N   -0.768324
     2  H    0.406866
     3  C   -0.100364
     4  H    0.253902
     5  C    0.775417
     6  O   -0.596807
     7  C   -0.492758
     8  S    0.286044
     9  C    0.084608
    10  N   -0.376545
    11  H    0.246054
    12  H    0.252394
    13  C    0.521817
    14  O   -0.579156
    15  N   -0.934309
    16  H    0.182738
    17  H    0.438992
    18  H    0.399432
 Sum of Mulliken atomic charges =   0.00000

 Dipole moment (field-independent basis, Debye):
    X=              4.1316    Y=             -2.0483    Z=              1.5077  Tot=              4.8516
 Quadrupole moment (field-independent basis, Debye-Ang):
   XX=            -89.2599   YY=            -79.2445   ZZ=            -67.5826
   XY=              6.4393   XZ=              2.5696   YZ=             -8.6416

 Normal termination of Gaussian 09 at Tue Dec 31 09:06:50 2019.
