 Gaussian 09, Revision A.02,
 Gaussian 09:  EM64L-G09RevA.02 11-Jun-2009

 ---------------------------------------------
 #P opt=(,maxcycle=400) HF/6-31G* MaxDisk=50GB
 ---------------------------------------------

 ------------------------------------------------------------------
 ModifiedRes Rotatable Bond Optimization on bme-nova.bme.utexas.edu
 ------------------------------------------------------------------
 Symbolic Z-matrix:
 Charge =  0 Multiplicity = 1

 SCF Done:  E(RHF) =  -903.982779827     A.U. after   16 cycles
 SCF Done:  E(RHF) =  -903.997887167     A.U. after   14 cycles
 SCF Done:  E(RHF) =  -904.000490899     A.U. after   15 cycles
 SCF Done:  E(RHF) =  -904.003271227     A.U. after   17 cycles
 SCF Done:  E(RHF) =  -904.004919228     A.U. after   13 cycles
 SCF Done:  E(RHF) =  -904.004758348     A.U. after   14 cycles
 SCF Done:  E(RHF) =  -904.005855789     A.U. after   13 cycles
 SCF Done:  E(RHF) =  -904.005850026     A.U. after   13 cycles
 SCF Done:  E(RHF) =  -904.005902742     A.U. after   13 cycles
 SCF Done:  E(RHF) =  -904.005956796     A.U. after   12 cycles
 SCF Done:  E(RHF) =  -904.005964532     A.U. after   12 cycles
 SCF Done:  E(RHF) =  -904.005971552     A.U. after   11 cycles
 SCF Done:  E(RHF) =  -904.005973205     A.U. after   11 cycles
 SCF Done:  E(RHF) =  -904.005973564     A.U. after   11 cycles
 SCF Done:  E(RHF) =  -904.005973637     A.U. after    9 cycles
 Optimization completed.
    -- Stationary point found.

                         Standard orientation:
 ---------------------------------------------------------------------
 Center     Atomic      Atomic             Coordinates (Angstroms)
 Number     Number       Type             X           Y           Z
 ---------------------------------------------------------------------
      1          7           0       -1.057645    1.146587   -0.747704
      2          1           0       -0.883489    1.602298   -1.615600
      3          6           0       -0.683158   -0.252636   -0.628035
      4          1           0       -0.519281   -0.603106   -1.641052
      5          6           0       -1.798984   -1.152230   -0.074652
      6          8           0       -1.522609   -2.176933    0.476037
      7          6           0        0.596765   -0.484738    0.179596
      8         16           0        1.949727    0.502159   -0.574684
      9          6           0        3.293800   -0.255464    0.149188
     10          7           0        4.211136   -0.740963    0.613787
     11          1           0        0.468157   -0.185041    1.206245
     12          1           0        0.861010   -1.527414    0.139053
     13          6           0       -1.322397    1.931686    0.329372
     14          8           0       -1.448325    1.522027    1.441483
     15          7           0       -3.064036   -0.781647   -0.367003
     16          1           0       -1.437007    2.983876    0.072411
     17          1           0       -3.273660    0.160276   -0.599206
     18          1           0       -3.786234   -1.313726    0.066559
 ---------------------------------------------------------------------

 The electronic state is 1-A.
 Alpha  occ. eigenvalues --  -92.00583 -20.57037 -20.54732 -15.63341 -15.59945
 Alpha  occ. eigenvalues --  -15.58470 -11.38371 -11.37458 -11.32540 -11.29705
 Alpha  occ. eigenvalues --  -11.29252  -9.01516  -6.69836  -6.69640  -6.69444
 Alpha  occ. eigenvalues --   -1.43567  -1.41700  -1.28660  -1.23868  -1.23114
 Alpha  occ. eigenvalues --   -1.11557  -1.03115  -0.91465  -0.86634  -0.79703
 Alpha  occ. eigenvalues --   -0.79475  -0.75545  -0.70799  -0.68040  -0.67474
 Alpha  occ. eigenvalues --   -0.65182  -0.62542  -0.61384  -0.60459  -0.58263
 Alpha  occ. eigenvalues --   -0.55974  -0.55492  -0.53003  -0.51988  -0.46698
 Alpha  occ. eigenvalues --   -0.46166  -0.45697  -0.43377  -0.42070  -0.38370
 Alpha virt. eigenvalues --    0.12848   0.16460   0.17141   0.18717   0.21439
 Alpha virt. eigenvalues --    0.21689   0.22298   0.23767   0.25181   0.26952
 Alpha virt. eigenvalues --    0.27769   0.28775   0.31102   0.35422   0.38406

 Mulliken atomic charges:
              1
     1  N   -0.803539
     2  H    0.402420
     3  C   -0.073078
     4  H    0.241147
     5  C    0.782927
     6  O   -0.589947
     7  C   -0.494791
     8  S    0.255206
     9  C    0.090570
    10  N   -0.377394
    11  H    0.269565
    12  H    0.265138
    13  C    0.503383
    14  O   -0.541236
    15  N   -0.906989
    16  H    0.176081
    17  H    0.399225
    18  H    0.401311
 Sum of Mulliken atomic charges =   0.00000

 Dipole moment (field-independent basis, Debye):
    X=             -5.1667    Y=              4.0382    Z=             -5.0013  Tot=              8.2471
 Quadrupole moment (field-independent basis, Debye-Ang):
   XX=            -81.4406   YY=            -73.2433   ZZ=            -73.6997
   XY=             -0.1962   XZ=              1.7167   YZ=             -3.1761

 Normal termination of Gaussian 09 at Mon Dec 30 09:51:00 2019.
