 Gaussian 09, Revision A.02,
 Gaussian 09:  EM64L-G09RevA.02 11-Jun-2009

 ------------------------------------------------------------------
 #P MP2/6-311++G** SP SCF=(qc,maxcycle=800) Guess=Indo MaxDisk=50GB
 ------------------------------------------------------------------

 --------------------------------------------------------------------
 ModifiedRes Rotatable Bond SP Calculation on bme-nova.bme.utexas.edu
 --------------------------------------------------------------------
 Symbolic Z-matrix:
 Charge =  0 Multiplicity = 1

                         Standard orientation:
 ---------------------------------------------------------------------
 Center     Atomic      Atomic             Coordinates (Angstroms)
 Number     Number       Type             X           Y           Z
 ---------------------------------------------------------------------
      1          7           0       -0.638869    0.899765    0.627629
      2          1           0       -0.190168    0.757398    1.526672
      3          6           0       -0.593774   -0.167950   -0.401153
      4          1           0       -0.712505    0.319678   -1.379434
      5          6           0       -1.781559   -1.138897   -0.151026
      6          8           0       -1.576776   -2.323487    0.126441
      7          6           0        0.771227   -0.923621   -0.455919
      8         16           0        2.033269   -0.400926    0.788725
      9          6           0        3.232411    0.226537   -0.242697
     10          7           0        4.080868    0.668486   -0.942162
     11          1           0        0.589672   -1.989882   -0.308335
     12          1           0        1.224364   -0.768782   -1.438532
     13          6           0       -1.387015    2.033595    0.486072
     14          8           0       -2.110242    2.248229   -0.493149
     15          7           0       -3.030682   -0.614101   -0.272063
     16          1           0       -1.292548    2.744794    1.321883
     17          1           0       -3.173403    0.336628   -0.600116
     18          1           0       -3.808528   -1.239993   -0.113574
 ---------------------------------------------------------------------

 SCF Done:  E(RHF) =  -904.149970964     a.u. after   12 cycles
 E2 =    -0.1757071751D+01 EUMP2 =    -0.90590704271476D+03

 The electronic state is 1-A.
 Alpha  occ. eigenvalues --  -92.03273 -20.56131 -20.54825 -15.63353 -15.60370
 Alpha  occ. eigenvalues --  -15.60274 -11.39368 -11.38625 -11.33766 -11.32009
 Alpha  occ. eigenvalues --  -11.31362  -9.03418  -6.71679  -6.71496  -6.71356
 Alpha  occ. eigenvalues --   -1.41349  -1.40229  -1.27366  -1.23104  -1.22723
 Alpha  occ. eigenvalues --   -1.11871  -1.03773  -0.91896  -0.86539  -0.81266
 Alpha  occ. eigenvalues --   -0.76736  -0.75533  -0.71354  -0.70040  -0.67477
 Alpha  occ. eigenvalues --   -0.64269  -0.63106  -0.61140  -0.59344  -0.57790
 Alpha  occ. eigenvalues --   -0.57166  -0.56419  -0.52965  -0.52200  -0.47657
 Alpha  occ. eigenvalues --   -0.46759  -0.46050  -0.43268  -0.42308  -0.39458
 Alpha virt. eigenvalues --    0.02998   0.04213   0.04965   0.05693   0.06836
 Alpha virt. eigenvalues --    0.07265   0.08494   0.08906   0.09443   0.09927
 Alpha virt. eigenvalues --    0.10841   0.11273   0.12436   0.12741   0.13455

 Mulliken atomic charges:
              1
     1  N   -0.148103
     2  H    0.314595
     3  C   -0.331589
     4  H    0.314035
     5  C    0.159443
     6  O   -0.427936
     7  C   -0.404724
     8  S    0.423595
     9  C   -0.314967
    10  N   -0.182187
    11  H    0.309938
    12  H    0.160857
    13  C    0.265071
    14  O   -0.456659
    15  N   -0.522364
    16  H    0.160800
    17  H    0.320472
    18  H    0.359725
 Sum of Mulliken atomic charges =   0.00000

 Dipole moment (field-independent basis, Debye):
    X=             -2.9725    Y=              0.4061    Z=              2.3840  Tot=              3.8319
 Quadrupole moment (field-independent basis, Debye-Ang):
   XX=            -87.4662   YY=            -84.4714   ZZ=            -68.9668
   XY=             -2.9281   XZ=              3.5893   YZ=              9.3425

 Normal termination of Gaussian 09 at Tue Dec 31 09:04:06 2019.
