 Gaussian 09, Revision A.02,
 Gaussian 09:  EM64L-G09RevA.02 11-Jun-2009

 ------------------------------------------------------------------
 #P MP2/6-311++G** SP SCF=(qc,maxcycle=800) Guess=Indo MaxDisk=50GB
 ------------------------------------------------------------------

 --------------------------------------------------------------------
 ModifiedRes Rotatable Bond SP Calculation on bme-nova.bme.utexas.edu
 --------------------------------------------------------------------
 Symbolic Z-matrix:
 Charge =  0 Multiplicity = 1

                         Standard orientation:
 ---------------------------------------------------------------------
 Center     Atomic      Atomic             Coordinates (Angstroms)
 Number     Number       Type             X           Y           Z
 ---------------------------------------------------------------------
      1          7           0        0.668801    1.401508    0.440149
      2          1           0        1.408543    1.677900    1.076083
      3          6           0        0.759010   -0.080001    0.252946
      4          1           0        0.446421   -0.507820    1.215802
      5          6           0        2.215295   -0.584750   -0.042401
      6          8           0        2.394238   -1.622625   -0.683463
      7          6           0       -0.117552   -0.726164   -0.870466
      8         16           0       -1.931194   -0.412199   -0.834264
      9          6           0       -2.232258   -1.104428    0.691154
     10          7           0       -2.428655   -1.620759    1.742038
     11          1           0        0.208686   -0.332095   -1.836702
     12          1           0        0.017981   -1.810601   -0.858001
     13          6           0       -0.256384    2.382844    0.200541
     14          8           0       -1.317079    2.308618   -0.410551
     15          7           0        3.267255    0.075572    0.518709
     16          1           0        0.081260    3.346218    0.621662
     17          1           0        3.181847    0.718854    1.293099
     18          1           0        4.176634   -0.304466    0.291485
 ---------------------------------------------------------------------

 SCF Done:  E(RHF) =  -904.121768674     a.u. after   11 cycles
 E2 =    -0.1761199193D+01 EUMP2 =    -0.90588296786694D+03

 The electronic state is 1-A.
 Alpha  occ. eigenvalues --  -92.00601 -20.56039 -20.54812 -15.63346 -15.62687
 Alpha  occ. eigenvalues --  -15.58614 -11.40434 -11.38680 -11.34521 -11.30608
 Alpha  occ. eigenvalues --  -11.30379  -9.00764  -6.68994  -6.68810  -6.68657
 Alpha  occ. eigenvalues --   -1.41844  -1.39949  -1.27445  -1.24441  -1.21457
 Alpha  occ. eigenvalues --   -1.11014  -1.02923  -0.91863  -0.85962  -0.80828
 Alpha  occ. eigenvalues --   -0.79004  -0.74770  -0.70767  -0.69593  -0.66869
 Alpha  occ. eigenvalues --   -0.64665  -0.63093  -0.59808  -0.59405  -0.58475
 Alpha  occ. eigenvalues --   -0.56157  -0.54834  -0.52207  -0.50716  -0.47624
 Alpha  occ. eigenvalues --   -0.45837  -0.45263  -0.44347  -0.42289  -0.36157
 Alpha virt. eigenvalues --    0.01366   0.04149   0.05148   0.05805   0.06850
 Alpha virt. eigenvalues --    0.07869   0.08384   0.08787   0.09708   0.10939
 Alpha virt. eigenvalues --    0.11528   0.12222   0.13046   0.13131   0.13427

 Mulliken atomic charges:
              1
     1  N   -0.138576
     2  H    0.281240
     3  C   -0.073335
     4  H    0.277359
     5  C    0.086197
     6  O   -0.364764
     7  C   -0.660820
     8  S    0.656443
     9  C   -0.460131
    10  N   -0.192573
    11  H    0.284990
    12  H    0.254112
    13  C    0.151115
    14  O   -0.360027
    15  N   -0.478729
    16  H    0.133207
    17  H    0.248525
    18  H    0.355768
 Sum of Mulliken atomic charges =   0.00000

 Dipole moment (field-independent basis, Debye):
    X=              6.5684    Y=              3.6830    Z=              1.1986  Tot=              7.6253
 Quadrupole moment (field-independent basis, Debye-Ang):
   XX=            -72.7954   YY=            -79.8293   ZZ=            -74.1421
   XY=              8.6413   XZ=             13.4674   YZ=              8.6121

 Normal termination of Gaussian 09 at Mon Dec 30 09:58:59 2019.
