 Gaussian 09, Revision A.02,
 Gaussian 09:  EM64L-G09RevA.02 11-Jun-2009

 ---------------------------------------------
 #P opt=(,maxcycle=400) HF/6-31G* MaxDisk=50GB
 ---------------------------------------------

 ------------------------------------------------------------------
 ModifiedRes Rotatable Bond Optimization on bme-nova.bme.utexas.edu
 ------------------------------------------------------------------
 Symbolic Z-matrix:
 Charge =  0 Multiplicity = 1

 SCF Done:  E(RHF) =  -903.977568968     A.U. after   16 cycles
 SCF Done:  E(RHF) =  -903.994528510     A.U. after   15 cycles
 SCF Done:  E(RHF) =  -903.997247393     A.U. after   13 cycles
 SCF Done:  E(RHF) =  -903.999326602     A.U. after   15 cycles
 SCF Done:  E(RHF) =  -904.002008636     A.U. after   17 cycles
 SCF Done:  E(RHF) =  -904.006199285     A.U. after   17 cycles
 SCF Done:  E(RHF) =  -904.007378060     A.U. after   13 cycles
 SCF Done:  E(RHF) =  -904.007533566     A.U. after   14 cycles
 SCF Done:  E(RHF) =  -904.008479456     A.U. after   13 cycles
 SCF Done:  E(RHF) =  -904.008621396     A.U. after   13 cycles
 SCF Done:  E(RHF) =  -904.010272458     A.U. after   13 cycles
 SCF Done:  E(RHF) =  -904.010743004     A.U. after   13 cycles
 SCF Done:  E(RHF) =  -904.010999398     A.U. after   13 cycles
 SCF Done:  E(RHF) =  -904.011247443     A.U. after   13 cycles
 SCF Done:  E(RHF) =  -904.011408019     A.U. after   13 cycles
 SCF Done:  E(RHF) =  -904.011459851     A.U. after   12 cycles
 SCF Done:  E(RHF) =  -904.011476242     A.U. after   12 cycles
 SCF Done:  E(RHF) =  -904.011480900     A.U. after   11 cycles
 SCF Done:  E(RHF) =  -904.011481365     A.U. after   10 cycles
 SCF Done:  E(RHF) =  -904.011481466     A.U. after    9 cycles
 Optimization completed.
    -- Stationary point found.

                         Standard orientation:
 ---------------------------------------------------------------------
 Center     Atomic      Atomic             Coordinates (Angstroms)
 Number     Number       Type             X           Y           Z
 ---------------------------------------------------------------------
      1          7           0        0.972593   -0.886629    0.757396
      2          1           0        0.595028   -0.861864    1.679176
      3          6           0        0.605109    0.165488   -0.176201
      4          1           0        0.716427   -0.245036   -1.170438
      5          6           0        1.544172    1.374266   -0.029435
      6          8           0        1.191029    2.377554    0.523410
      7          6           0       -0.834705    0.613872    0.044318
      8         16           0       -1.956490   -0.821318   -0.177589
      9          6           0       -3.448620    0.001993   -0.102049
     10          7           0       -4.456115    0.526986   -0.053101
     11          1           0       -0.966653    1.027995    1.031737
     12          1           0       -1.092683    1.372381   -0.677751
     13          6           0        1.915663   -1.808735    0.474470
     14          8           0        2.539633   -1.848485   -0.547419
     15          7           0        2.763021    1.196140   -0.567048
     16          1           0        2.059423   -2.533597    1.272825
     17          1           0        3.054783    0.306065   -0.908436
     18          1           0        3.446006    1.905823   -0.420978
 ---------------------------------------------------------------------

 The electronic state is 1-A.
 Alpha  occ. eigenvalues --  -92.01092 -20.56943 -20.54872 -15.63317 -15.59690
 Alpha  occ. eigenvalues --  -15.58909 -11.38514 -11.37291 -11.32196 -11.30403
 Alpha  occ. eigenvalues --  -11.30073  -9.02001  -6.70310  -6.70120  -6.69916
 Alpha  occ. eigenvalues --   -1.43377  -1.41613  -1.28586  -1.24302  -1.23195
 Alpha  occ. eigenvalues --   -1.12246  -1.03305  -0.91358  -0.87052  -0.81767
 Alpha  occ. eigenvalues --   -0.76975  -0.75843  -0.71460  -0.69982  -0.67176
 Alpha  occ. eigenvalues --   -0.64516  -0.62831  -0.62084  -0.58996  -0.58406
 Alpha  occ. eigenvalues --   -0.57101  -0.56110  -0.53408  -0.52341  -0.47400
 Alpha  occ. eigenvalues --   -0.46510  -0.46143  -0.42868  -0.41762  -0.38699
 Alpha virt. eigenvalues --    0.12891   0.15870   0.17634   0.19441   0.20874
 Alpha virt. eigenvalues --    0.21181   0.22430   0.23470   0.24300   0.27395
 Alpha virt. eigenvalues --    0.28400   0.29670   0.32296   0.34508   0.37788

 Mulliken atomic charges:
              1
     1  N   -0.768433
     2  H    0.406908
     3  C   -0.100259
     4  H    0.253868
     5  C    0.775476
     6  O   -0.596780
     7  C   -0.492864
     8  S    0.285931
     9  C    0.084646
    10  N   -0.376498
    11  H    0.246080
    12  H    0.252440
    13  C    0.521847
    14  O   -0.579176
    15  N   -0.934282
    16  H    0.182721
    17  H    0.438976
    18  H    0.399399
 Sum of Mulliken atomic charges =   0.00000

 Dipole moment (field-independent basis, Debye):
    X=              4.1238    Y=             -2.0517    Z=              1.5057  Tot=              4.8459
 Quadrupole moment (field-independent basis, Debye-Ang):
   XX=            -89.2748   YY=            -79.2341   ZZ=            -67.5908
   XY=              6.4371   XZ=              2.5744   YZ=             -8.6420

 Normal termination of Gaussian 09 at Mon Dec 30 10:05:50 2019.
