 Gaussian 09, Revision A.02,
 Gaussian 09:  EM64L-G09RevA.02 11-Jun-2009

 ------------------------------------------------------------------
 #P MP2/6-311++G** SP SCF=(qc,maxcycle=800) Guess=Indo MaxDisk=50GB
 ------------------------------------------------------------------

 --------------------------------------------------------------------
 ModifiedRes Rotatable Bond SP Calculation on bme-nova.bme.utexas.edu
 --------------------------------------------------------------------
 Symbolic Z-matrix:
 Charge =  0 Multiplicity = 1

                         Standard orientation:
 ---------------------------------------------------------------------
 Center     Atomic      Atomic             Coordinates (Angstroms)
 Number     Number       Type             X           Y           Z
 ---------------------------------------------------------------------
      1          7           0       -2.115243    0.654669    0.037346
      2          1           0       -2.389570    1.632124    0.000934
      3          6           0       -0.727357    0.307889    0.461811
      4          1           0       -0.755705    0.105863    1.537869
      5          6           0        0.176162    1.531321    0.146138
      6          8           0       -0.058453    2.247936   -0.827929
      7          6           0       -0.208368   -0.939850   -0.301808
      8         16           0        1.334587   -1.595188    0.457706
      9          6           0        2.502040   -0.711362   -0.408234
     10          7           0        3.344142   -0.114558   -0.990759
     11          1           0       -0.940128   -1.744295   -0.207554
     12          1           0       -0.067410   -0.747581   -1.367237
     13          6           0       -3.148921   -0.211528   -0.196728
     14          8           0       -3.058373   -1.442252   -0.173167
     15          7           0        1.205767    1.750896    1.007090
     16          1           0       -4.100920    0.298984   -0.416296
     17          1           0        1.401403    1.124324    1.778349
     18          1           0        1.829551    2.512259    0.776585
 ---------------------------------------------------------------------

 SCF Done:  E(RHF) =  -904.149913657     a.u. after   12 cycles
 E2 =    -0.1760265900D+01 EUMP2 =    -0.90591017955657D+03

 The electronic state is 1-A.
 Alpha  occ. eigenvalues --  -92.03202 -20.54998 -20.54750 -15.62132 -15.61434
 Alpha  occ. eigenvalues --  -15.60165 -11.39156 -11.38196 -11.33866 -11.31698
 Alpha  occ. eigenvalues --  -11.30985  -9.03344  -6.71599  -6.71411  -6.71274
 Alpha  occ. eigenvalues --   -1.40806  -1.39668  -1.25812  -1.24075  -1.22859
 Alpha  occ. eigenvalues --   -1.12300  -1.03210  -0.92257  -0.85391  -0.80526
 Alpha  occ. eigenvalues --   -0.77573  -0.73929  -0.73016  -0.68213  -0.66608
 Alpha  occ. eigenvalues --   -0.64316  -0.62508  -0.61200  -0.60460  -0.57462
 Alpha  occ. eigenvalues --   -0.56991  -0.55570  -0.53736  -0.52546  -0.46540
 Alpha  occ. eigenvalues --   -0.45686  -0.44367  -0.43651  -0.42358  -0.39645
 Alpha virt. eigenvalues --    0.02954   0.03999   0.05454   0.05847   0.06760
 Alpha virt. eigenvalues --    0.07612   0.08014   0.08826   0.09709   0.10425
 Alpha virt. eigenvalues --    0.11481   0.11831   0.12552   0.12838   0.13414

 Mulliken atomic charges:
              1
     1  N   -0.193496
     2  H    0.337863
     3  C   -0.400696
     4  H    0.276785
     5  C   -0.082188
     6  O   -0.385024
     7  C   -0.173551
     8  S    0.299501
     9  C   -0.372114
    10  N   -0.144709
    11  H    0.333583
    12  H    0.256040
    13  C    0.286617
    14  O   -0.460471
    15  N   -0.355166
    16  H    0.151426
    17  H    0.262575
    18  H    0.363025
 Sum of Mulliken atomic charges =   0.00000

 Dipole moment (field-independent basis, Debye):
    X=             -1.9069    Y=              1.2305    Z=              4.3334  Tot=              4.8918
 Quadrupole moment (field-independent basis, Debye-Ang):
   XX=            -80.4130   YY=            -78.3578   ZZ=            -72.1443
   XY=             -8.6997   XZ=              7.4907   YZ=              6.1952

 Normal termination of Gaussian 09 at Mon Dec 30 09:59:05 2019.
