 Gaussian 09, Revision A.02,
 Gaussian 09:  EM64L-G09RevA.02 11-Jun-2009

 ------------------------------------------------------------------
 #P MP2/6-311++G** SP SCF=(qc,maxcycle=800) Guess=Indo MaxDisk=50GB
 ------------------------------------------------------------------

 --------------------------------------------------------------------
 ModifiedRes Rotatable Bond SP Calculation on bme-nova.bme.utexas.edu
 --------------------------------------------------------------------
 Symbolic Z-matrix:
 Charge =  0 Multiplicity = 1

                         Standard orientation:
 ---------------------------------------------------------------------
 Center     Atomic      Atomic             Coordinates (Angstroms)
 Number     Number       Type             X           Y           Z
 ---------------------------------------------------------------------
      1          7           0        1.054604   -0.833653    0.841460
      2          1           0        0.910882   -0.664860    1.832824
      3          6           0        0.674895    0.187037   -0.155823
      4          1           0        0.793943   -0.270957   -1.147250
      5          6           0        1.613389    1.410025   -0.047819
      6          8           0        1.226481    2.454571    0.479906
      7          6           0       -0.787533    0.639366    0.031923
      8         16           0       -1.932503   -0.793705   -0.134071
      9          6           0       -3.410067    0.046787   -0.105814
     10          7           0       -4.454127    0.607897   -0.088848
     11          1           0       -0.927706    1.100655    1.011937
     12          1           0       -1.040398    1.373944   -0.736291
     13          6           0        1.781021   -1.940437    0.506500
     14          8           0        2.164975   -2.166454   -0.644793
     15          7           0        2.857979    1.232790   -0.568040
     16          1           0        1.994537   -2.617209    1.348882
     17          1           0        3.123407    0.350214   -0.994223
     18          1           0        3.494310    2.016662   -0.517459
 ---------------------------------------------------------------------

 SCF Done:  E(RHF) =  -904.161005593     a.u. after   11 cycles
 E2 =    -0.1754977923D+01 EUMP2 =    -0.90591598351625D+03

 The electronic state is 1-A.
 Alpha  occ. eigenvalues --  -92.02517 -20.56264 -20.55386 -15.63751 -15.61481
 Alpha  occ. eigenvalues --  -15.59812 -11.39482 -11.39188 -11.33752 -11.31357
 Alpha  occ. eigenvalues --  -11.31117  -9.02659  -6.70915  -6.70734  -6.70578
 Alpha  occ. eigenvalues --   -1.41558  -1.40720  -1.27831  -1.23819  -1.22493
 Alpha  occ. eigenvalues --   -1.12042  -1.03699  -0.91611  -0.86780  -0.82275
 Alpha  occ. eigenvalues --   -0.77549  -0.75280  -0.71490  -0.70239  -0.67657
 Alpha  occ. eigenvalues --   -0.64086  -0.63319  -0.62107  -0.58902  -0.58451
 Alpha  occ. eigenvalues --   -0.57047  -0.56497  -0.53162  -0.51645  -0.47575
 Alpha  occ. eigenvalues --   -0.46883  -0.45620  -0.44083  -0.42775  -0.38748
 Alpha virt. eigenvalues --    0.02649   0.03773   0.05220   0.05527   0.07220
 Alpha virt. eigenvalues --    0.07611   0.08252   0.08796   0.09568   0.10699
 Alpha virt. eigenvalues --    0.10983   0.12022   0.12520   0.12896   0.13102

 Mulliken atomic charges:
              1
     1  N   -0.080097
     2  H    0.342798
     3  C   -0.393211
     4  H    0.276123
     5  C    0.230570
     6  O   -0.396647
     7  C   -0.451232
     8  S    0.159985
     9  C   -0.117654
    10  N   -0.206755
    11  H    0.245007
    12  H    0.236693
    13  C    0.246586
    14  O   -0.427548
    15  N   -0.499622
    16  H    0.153489
    17  H    0.306620
    18  H    0.374894
 Sum of Mulliken atomic charges =   0.00000

 Dipole moment (field-independent basis, Debye):
    X=              5.2477    Y=             -1.5458    Z=              1.6416  Tot=              5.7116
 Quadrupole moment (field-independent basis, Debye-Ang):
   XX=            -88.7451   YY=            -83.7913   ZZ=            -68.1230
   XY=              7.8025   XZ=              1.9206   YZ=            -10.6518

 Normal termination of Gaussian 09 at Mon Dec 30 09:58:27 2019.
