 Gaussian 09, Revision A.02,
 Gaussian 09:  EM64L-G09RevA.02 11-Jun-2009

 ---------------------------------------------
 #P opt=(,maxcycle=400) HF/6-31G* MaxDisk=50GB
 ---------------------------------------------

 ------------------------------------------------------------------
 ModifiedRes Rotatable Bond Optimization on bme-nova.bme.utexas.edu
 ------------------------------------------------------------------
 Symbolic Z-matrix:
 Charge =  0 Multiplicity = 1

 SCF Done:  E(RHF) =  -903.992873729     A.U. after   16 cycles
 SCF Done:  E(RHF) =  -904.007354449     A.U. after   14 cycles
 SCF Done:  E(RHF) =  -904.007701800     A.U. after   15 cycles
 SCF Done:  E(RHF) =  -904.007864975     A.U. after   13 cycles
 SCF Done:  E(RHF) =  -904.008155586     A.U. after   14 cycles
 SCF Done:  E(RHF) =  -904.008263351     A.U. after   13 cycles
 SCF Done:  E(RHF) =  -904.008287570     A.U. after   12 cycles
 SCF Done:  E(RHF) =  -904.008293414     A.U. after   13 cycles
 SCF Done:  E(RHF) =  -904.008327186     A.U. after   11 cycles
 SCF Done:  E(RHF) =  -904.008331070     A.U. after   11 cycles
 SCF Done:  E(RHF) =  -904.008331622     A.U. after   11 cycles
 SCF Done:  E(RHF) =  -904.008331749     A.U. after    9 cycles
 SCF Done:  E(RHF) =  -904.008331757     A.U. after    8 cycles
 SCF Done:  E(RHF) =  -904.008331760     A.U. after    8 cycles
 Optimization completed.
    -- Stationary point found.

                         Standard orientation:
 ---------------------------------------------------------------------
 Center     Atomic      Atomic             Coordinates (Angstroms)
 Number     Number       Type             X           Y           Z
 ---------------------------------------------------------------------
      1          7           0        1.568549   -1.040274    0.748825
      2          1           0        1.393675   -1.178507    1.720092
      3          6           0        0.637855   -0.224668   -0.013527
      4          1           0        0.801238   -0.467184   -1.054220
      5          6           0        0.951677    1.258641    0.237117
      6          8           0        0.399896    1.872830    1.105229
      7          6           0       -0.789649   -0.577419    0.397562
      8         16           0       -1.962615    0.085461   -0.843755
      9          6           0       -3.421513   -0.307444   -0.055611
     10          7           0       -4.405175   -0.569582    0.451265
     11          1           0       -0.902493   -1.650627    0.433929
     12          1           0       -1.021481   -0.140133    1.356368
     13          6           0        2.783257   -1.371944    0.260862
     14          8           0        3.179620   -1.075814   -0.829441
     15          7           0        1.898563    1.771369   -0.571162
     16          1           0        3.379674   -1.955994    0.958815
     17          1           0        2.473144    1.171787   -1.122599
     18          1           0        2.238633    2.683560   -0.359523
 ---------------------------------------------------------------------

 The electronic state is 1-A.
 Alpha  occ. eigenvalues --  -92.00786 -20.56847 -20.54840 -15.63176 -15.59795
 Alpha  occ. eigenvalues --  -15.58676 -11.38403 -11.37142 -11.32050 -11.30204
 Alpha  occ. eigenvalues --  -11.29888  -9.01705  -6.70016  -6.69830  -6.69614
 Alpha  occ. eigenvalues --   -1.43284  -1.41569  -1.28390  -1.24081  -1.23248
 Alpha  occ. eigenvalues --   -1.12218  -1.02846  -0.91521  -0.86654  -0.81700
 Alpha  occ. eigenvalues --   -0.77247  -0.74924  -0.71639  -0.70377  -0.66428
 Alpha  occ. eigenvalues --   -0.64569  -0.63468  -0.61629  -0.58283  -0.57872
 Alpha  occ. eigenvalues --   -0.57360  -0.56134  -0.53136  -0.52060  -0.47202
 Alpha  occ. eigenvalues --   -0.46986  -0.45370  -0.43131  -0.41485  -0.38459
 Alpha virt. eigenvalues --    0.12540   0.15949   0.17428   0.19938   0.20492
 Alpha virt. eigenvalues --    0.21866   0.22729   0.24194   0.24494   0.27100
 Alpha virt. eigenvalues --    0.27837   0.30461   0.31857   0.34868   0.38525

 Mulliken atomic charges:
              1
     1  N   -0.764387
     2  H    0.403320
     3  C   -0.086503
     4  H    0.249926
     5  C    0.763953
     6  O   -0.595222
     7  C   -0.503499
     8  S    0.298334
     9  C    0.087271
    10  N   -0.378802
    11  H    0.235930
    12  H    0.261115
    13  C    0.518651
    14  O   -0.576009
    15  N   -0.921416
    16  H    0.179963
    17  H    0.428933
    18  H    0.398444
 Sum of Mulliken atomic charges =   0.00000

 Dipole moment (field-independent basis, Debye):
    X=              5.0520    Y=             -1.6085    Z=              0.7700  Tot=              5.3575
 Quadrupole moment (field-independent basis, Debye-Ang):
   XX=            -91.1655   YY=            -70.3638   ZZ=            -70.8228
   XY=              0.8460   XZ=             10.3149   YZ=             -9.3237

 Normal termination of Gaussian 09 at Tue Dec 31 08:58:08 2019.
