 Gaussian 09, Revision A.02,
 Gaussian 09:  EM64L-G09RevA.02 11-Jun-2009

 ------------------------------------------------------------------
 #P MP2/6-311++G** SP SCF=(qc,maxcycle=800) Guess=Indo MaxDisk=50GB
 ------------------------------------------------------------------

 --------------------------------------------------------------------
 ModifiedRes Rotatable Bond SP Calculation on bme-nova.bme.utexas.edu
 --------------------------------------------------------------------
 Symbolic Z-matrix:
 Charge =  0 Multiplicity = 1

                         Standard orientation:
 ---------------------------------------------------------------------
 Center     Atomic      Atomic             Coordinates (Angstroms)
 Number     Number       Type             X           Y           Z
 ---------------------------------------------------------------------
      1          7           0        1.054255   -1.211626   -0.719525
      2          1           0        0.749269   -1.718404   -1.546413
      3          6           0        0.641330    0.204069   -0.679657
      4          1           0        0.468177    0.488205   -1.726675
      5          6           0        1.704776    1.204679   -0.122860
      6          8           0        1.340197    2.267946    0.386626
      7          6           0       -0.650864    0.451826    0.137612
      8         16           0       -2.011252   -0.598404   -0.519824
      9          6           0       -3.345732    0.178638    0.190660
     10          7           0       -4.297414    0.697043    0.670600
     11          1           0       -0.491424    0.210401    1.191923
     12          1           0       -0.945442    1.499526    0.040227
     13          6           0        1.563179   -1.913585    0.337230
     14          8           0        1.884392   -1.409142    1.412035
     15          7           0        3.018880    0.922487   -0.341146
     16          1           0        1.685893   -2.989163    0.131624
     17          1           0        3.333645    0.008788   -0.637040
     18          1           0        3.677027    1.595597    0.026837
 ---------------------------------------------------------------------

 SCF Done:  E(RHF) =  -904.153851243     a.u. after   12 cycles
 E2 =    -0.1757562866D+01 EUMP2 =    -0.90591141410878D+03

 The electronic state is 1-A.
 Alpha  occ. eigenvalues --  -92.02420 -20.56574 -20.54532 -15.64237 -15.60654
 Alpha  occ. eigenvalues --  -15.59725 -11.39610 -11.39090 -11.34421 -11.31298
 Alpha  occ. eigenvalues --  -11.30477  -9.02590  -6.70860  -6.70673  -6.70525
 Alpha  occ. eigenvalues --   -1.41748  -1.40076  -1.28280  -1.22887  -1.22385
 Alpha  occ. eigenvalues --   -1.11806  -1.03593  -0.91702  -0.87335  -0.79801
 Alpha  occ. eigenvalues --   -0.79182  -0.75268  -0.71089  -0.68575  -0.67771
 Alpha  occ. eigenvalues --   -0.64876  -0.62646  -0.61211  -0.60309  -0.58519
 Alpha  occ. eigenvalues --   -0.56531  -0.55458  -0.53111  -0.51588  -0.47063
 Alpha  occ. eigenvalues --   -0.46506  -0.45409  -0.43670  -0.42733  -0.38793
 Alpha virt. eigenvalues --    0.01707   0.03975   0.04228   0.06003   0.06687
 Alpha virt. eigenvalues --    0.07334   0.08278   0.08589   0.10062   0.10560
 Alpha virt. eigenvalues --    0.11192   0.11677   0.12521   0.13088   0.13677

 Mulliken atomic charges:
              1
     1  N   -0.326216
     2  H    0.403896
     3  C    0.060681
     4  H    0.234542
     5  C    0.131064
     6  O   -0.402642
     7  C   -0.367468
     8  S    0.196511
     9  C   -0.242018
    10  N   -0.181883
    11  H    0.277226
    12  H    0.236966
    13  C    0.067935
    14  O   -0.379555
    15  N   -0.472343
    16  H    0.135371
    17  H    0.283655
    18  H    0.344278
 Sum of Mulliken atomic charges =   0.00000

 Dipole moment (field-independent basis, Debye):
    X=              5.0864    Y=             -4.3825    Z=             -5.4827  Tot=              8.6682
 Quadrupole moment (field-independent basis, Debye-Ang):
   XX=            -85.4053   YY=            -74.3152   ZZ=            -75.1790
   XY=              1.6994   XZ=             -3.1963   YZ=              3.0064

 Normal termination of Gaussian 09 at Mon Dec 30 09:58:27 2019.
