 Gaussian 09, Revision A.02,
 Gaussian 09:  EM64L-G09RevA.02 11-Jun-2009

 ---------------------------------------------
 #P opt=(,maxcycle=400) HF/6-31G* MaxDisk=50GB
 ---------------------------------------------

 ------------------------------------------------------------------
 ModifiedRes Rotatable Bond Optimization on bme-nova.bme.utexas.edu
 ------------------------------------------------------------------
 Symbolic Z-matrix:
 Charge =  0 Multiplicity = 1

 SCF Done:  E(RHF) =  -903.995089093     A.U. after   16 cycles
 SCF Done:  E(RHF) =  -904.008663599     A.U. after   14 cycles
 SCF Done:  E(RHF) =  -904.009630594     A.U. after   16 cycles
 SCF Done:  E(RHF) =  -904.010703773     A.U. after   16 cycles
 SCF Done:  E(RHF) =  -904.010060311     A.U. after   17 cycles
 SCF Done:  E(RHF) =  -904.012124336     A.U. after   14 cycles
 SCF Done:  E(RHF) =  -904.012257687     A.U. after   14 cycles
 SCF Done:  E(RHF) =  -904.013053642     A.U. after   13 cycles
 SCF Done:  E(RHF) =  -904.013228015     A.U. after   13 cycles
 SCF Done:  E(RHF) =  -904.013858539     A.U. after   13 cycles
 SCF Done:  E(RHF) =  -904.013870544     A.U. after   13 cycles
 SCF Done:  E(RHF) =  -904.013874710     A.U. after   13 cycles
 SCF Done:  E(RHF) =  -904.013908327     A.U. after   12 cycles
 SCF Done:  E(RHF) =  -904.013911339     A.U. after   11 cycles
 SCF Done:  E(RHF) =  -904.013913391     A.U. after   10 cycles
 SCF Done:  E(RHF) =  -904.013913916     A.U. after   11 cycles
 SCF Done:  E(RHF) =  -904.013914493     A.U. after   10 cycles
 SCF Done:  E(RHF) =  -904.013914711     A.U. after    9 cycles
 SCF Done:  E(RHF) =  -904.013914816     A.U. after    9 cycles
 Optimization completed.
    -- Stationary point found.

                         Standard orientation:
 ---------------------------------------------------------------------
 Center     Atomic      Atomic             Coordinates (Angstroms)
 Number     Number       Type             X           Y           Z
 ---------------------------------------------------------------------
      1          7           0       -0.310772    0.912048    0.498293
      2          1           0        0.264666    0.862620    1.309814
      3          6           0       -0.571388   -0.295239   -0.263910
      4          1           0       -0.707061    0.006383   -1.293560
      5          6           0       -1.860753   -0.979340    0.220573
      6          8           0       -1.830333   -2.008884    0.836208
      7          6           0        0.586149   -1.284213   -0.164934
      8         16           0        2.151858   -0.694535   -0.908397
      9          6           0        2.756623    0.251400    0.377090
     10          7           0        3.159710    0.880971    1.234890
     11          1           0        0.768312   -1.589853    0.853708
     12          1           0        0.342884   -2.176847   -0.722563
     13          6           0       -0.822369    2.108506    0.151330
     14          8           0       -1.587831    2.281155   -0.755946
     15          7           0       -2.990276   -0.333712   -0.113819
     16          1           0       -0.474951    2.922887    0.782730
     17          1           0       -2.966878    0.567564   -0.539934
     18          1           0       -3.851595   -0.680199    0.245624
 ---------------------------------------------------------------------

 The electronic state is 1-A.
 Alpha  occ. eigenvalues --  -92.01533 -20.56117 -20.54465 -15.62383 -15.59761
 Alpha  occ. eigenvalues --  -15.59212 -11.37663 -11.36827 -11.31557 -11.31115
 Alpha  occ. eigenvalues --  -11.30687  -9.02435  -6.70742  -6.70546  -6.70350
 Alpha  occ. eigenvalues --   -1.42550  -1.41135  -1.27859  -1.25265  -1.22716
 Alpha  occ. eigenvalues --   -1.12303  -1.03230  -0.91698  -0.86305  -0.81121
 Alpha  occ. eigenvalues --   -0.76715  -0.75224  -0.71336  -0.69134  -0.67524
 Alpha  occ. eigenvalues --   -0.63660  -0.63431  -0.60081  -0.59475  -0.58289
 Alpha  occ. eigenvalues --   -0.57132  -0.56451  -0.53929  -0.53146  -0.47094
 Alpha  occ. eigenvalues --   -0.46726  -0.45575  -0.42388  -0.41373  -0.39098
 Alpha virt. eigenvalues --    0.12164   0.16241   0.18114   0.19360   0.20564
 Alpha virt. eigenvalues --    0.21746   0.22688   0.24328   0.25125   0.27291
 Alpha virt. eigenvalues --    0.29343   0.29546   0.32327   0.33666   0.37091

 Mulliken atomic charges:
              1
     1  N   -0.770970
     2  H    0.413994
     3  C   -0.064898
     4  H    0.249130
     5  C    0.771618
     6  O   -0.603469
     7  C   -0.520954
     8  S    0.295726
     9  C    0.098949
    10  N   -0.398013
    11  H    0.253997
    12  H    0.251823
    13  C    0.520608
    14  O   -0.587278
    15  N   -0.936895
    16  H    0.186965
    17  H    0.441641
    18  H    0.398026
 Sum of Mulliken atomic charges =   0.00000

 Dipole moment (field-independent basis, Debye):
    X=             -1.4458    Y=             -0.2231    Z=             -0.6300  Tot=              1.5928
 Quadrupole moment (field-independent basis, Debye-Ang):
   XX=            -76.6656   YY=            -78.6960   ZZ=            -73.3685
   XY=             -4.9436   XZ=             -5.2659   YZ=              7.7266

 Normal termination of Gaussian 09 at Tue Dec 31 09:04:57 2019.
