 Gaussian 09, Revision A.02,
 Gaussian 09:  EM64L-G09RevA.02 11-Jun-2009

 ------------------------------------------------------------------
 #P MP2/6-311++G** SP SCF=(qc,maxcycle=800) Guess=Indo MaxDisk=50GB
 ------------------------------------------------------------------

 --------------------------------------------------------------------
 ModifiedRes Rotatable Bond SP Calculation on bme-nova.bme.utexas.edu
 --------------------------------------------------------------------
 Symbolic Z-matrix:
 Charge =  0 Multiplicity = 1

                         Standard orientation:
 ---------------------------------------------------------------------
 Center     Atomic      Atomic             Coordinates (Angstroms)
 Number     Number       Type             X           Y           Z
 ---------------------------------------------------------------------
      1          7           0        0.583915    1.029100   -0.409772
      2          1           0       -0.086360    0.992974   -1.171367
      3          6           0        0.619929   -0.068998    0.585852
      4          1           0        1.041964    0.347231    1.511604
      5          6           0        1.541910   -1.197127    0.054635
      6          8           0        1.081031   -2.318338   -0.172651
      7          6           0       -0.786869   -0.603601    0.948154
      8         16           0       -1.923811   -0.744040   -0.504502
      9          6           0       -3.094361    0.399564   -0.036632
     10          7           0       -3.920802    1.191377    0.270814
     11          1           0       -0.686129   -1.591650    1.402151
     12          1           0       -1.265046    0.066374    1.667405
     13          6           0        1.510672    2.031402   -0.439433
     14          8           0        2.469564    2.086488    0.338711
     15          7           0        2.853130   -0.880960   -0.120773
     16          1           0        1.332502    2.789596   -1.218242
     17          1           0        3.219309    0.023431    0.161855
     18          1           0        3.458584   -1.612582   -0.467194
 ---------------------------------------------------------------------

 SCF Done:  E(RHF) =  -904.160433363     a.u. after   12 cycles
 E2 =    -0.1757182672D+01 EUMP2 =    -0.90591761603585D+03

 The electronic state is 1-A.
 Alpha  occ. eigenvalues --  -92.03189 -20.56075 -20.54804 -15.63163 -15.60325
 Alpha  occ. eigenvalues --  -15.60274 -11.39280 -11.38509 -11.33662 -11.31884
 Alpha  occ. eigenvalues --  -11.31748  -9.03309  -6.71551  -6.71371  -6.71234
 Alpha  occ. eigenvalues --   -1.41307  -1.40222  -1.27265  -1.23118  -1.22729
 Alpha  occ. eigenvalues --   -1.12071  -1.03741  -0.92027  -0.86468  -0.81067
 Alpha  occ. eigenvalues --   -0.76904  -0.75456  -0.71477  -0.69733  -0.67194
 Alpha  occ. eigenvalues --   -0.64222  -0.63208  -0.60153  -0.60059  -0.58331
 Alpha  occ. eigenvalues --   -0.57403  -0.56449  -0.52981  -0.52467  -0.47617
 Alpha  occ. eigenvalues --   -0.46689  -0.45902  -0.43256  -0.42214  -0.39668
 Alpha virt. eigenvalues --    0.03297   0.03939   0.04754   0.05971   0.06814
 Alpha virt. eigenvalues --    0.07779   0.08220   0.08947   0.09699   0.10051
 Alpha virt. eigenvalues --    0.10799   0.12156   0.12709   0.13001   0.13274

 Mulliken atomic charges:
              1
     1  N   -0.225803
     2  H    0.299363
     3  C    0.263751
     4  H    0.303581
     5  C   -0.014560
     6  O   -0.425145
     7  C   -0.762593
     8  S    0.314482
     9  C   -0.230365
    10  N   -0.198984
    11  H    0.288796
    12  H    0.227257
    13  C    0.288979
    14  O   -0.458944
    15  N   -0.508314
    16  H    0.163327
    17  H    0.319625
    18  H    0.355549
 Sum of Mulliken atomic charges =   0.00000

 Dipole moment (field-independent basis, Debye):
    X=              2.7782    Y=              0.1518    Z=             -0.7463  Tot=              2.8806
 Quadrupole moment (field-independent basis, Debye-Ang):
   XX=            -88.3024   YY=            -84.0487   ZZ=            -66.8727
   XY=              1.5853   XZ=             -1.8487   YZ=             -7.5334

 Normal termination of Gaussian 09 at Tue Dec 31 09:03:31 2019.
