 Gaussian 09, Revision A.02,
 Gaussian 09:  EM64L-G09RevA.02 11-Jun-2009

 ---------------------------------------------
 #P opt=(,maxcycle=400) HF/6-31G* MaxDisk=50GB
 ---------------------------------------------

 ------------------------------------------------------------------
 ModifiedRes Rotatable Bond Optimization on bme-nova.bme.utexas.edu
 ------------------------------------------------------------------
 Symbolic Z-matrix:
 Charge =  0 Multiplicity = 1

 SCF Done:  E(RHF) =  -903.997047005     A.U. after   16 cycles
 SCF Done:  E(RHF) =  -904.012644366     A.U. after   15 cycles
 SCF Done:  E(RHF) =  -904.013139332     A.U. after   13 cycles
 SCF Done:  E(RHF) =  -904.013143050     A.U. after   15 cycles
 SCF Done:  E(RHF) =  -904.013822799     A.U. after   15 cycles
 SCF Done:  E(RHF) =  -904.013859960     A.U. after   12 cycles
 SCF Done:  E(RHF) =  -904.013819836     A.U. after   12 cycles
 SCF Done:  E(RHF) =  -904.013905430     A.U. after   12 cycles
 SCF Done:  E(RHF) =  -904.013901793     A.U. after   11 cycles
 SCF Done:  E(RHF) =  -904.013913608     A.U. after   11 cycles
 SCF Done:  E(RHF) =  -904.013914244     A.U. after   10 cycles
 SCF Done:  E(RHF) =  -904.013914573     A.U. after   10 cycles
 SCF Done:  E(RHF) =  -904.013914695     A.U. after    9 cycles
 Optimization completed.
    -- Stationary point found.

                         Standard orientation:
 ---------------------------------------------------------------------
 Center     Atomic      Atomic             Coordinates (Angstroms)
 Number     Number       Type             X           Y           Z
 ---------------------------------------------------------------------
      1          7           0       -0.310724    0.911897    0.498283
      2          1           0        0.264964    0.862415    1.309622
      3          6           0       -0.571301   -0.295194   -0.264328
      4          1           0       -0.707089    0.006649   -1.293869
      5          6           0       -1.860420   -0.979314    0.220758
      6          8           0       -1.829510   -2.007185    0.839124
      7          6           0        0.586229   -1.284144   -0.165646
      8         16           0        2.151979   -0.694219   -0.908669
      9          6           0        2.756367    0.251553    0.377146
     10          7           0        3.159718    0.881036    1.234871
     11          1           0        0.768219   -1.590375    0.852863
     12          1           0        0.343228   -2.176492   -0.723908
     13          6           0       -0.822961    2.108264    0.151833
     14          8           0       -1.588605    2.280888   -0.755308
     15          7           0       -2.990337   -0.335648   -0.116353
     16          1           0       -0.475881    2.922566    0.783525
     17          1           0       -2.967017    0.566116   -0.541478
     18          1           0       -3.851260   -0.680990    0.245224
 ---------------------------------------------------------------------

 The electronic state is 1-A.
 Alpha  occ. eigenvalues --  -92.01534 -20.56119 -20.54468 -15.62385 -15.59761
 Alpha  occ. eigenvalues --  -15.59212 -11.37665 -11.36827 -11.31557 -11.31115
 Alpha  occ. eigenvalues --  -11.30688  -9.02436  -6.70743  -6.70547  -6.70351
 Alpha  occ. eigenvalues --   -1.42551  -1.41138  -1.27859  -1.25266  -1.22717
 Alpha  occ. eigenvalues --   -1.12306  -1.03230  -0.91698  -0.86305  -0.81118
 Alpha  occ. eigenvalues --   -0.76715  -0.75219  -0.71340  -0.69128  -0.67530
 Alpha  occ. eigenvalues --   -0.63662  -0.63431  -0.60085  -0.59474  -0.58281
 Alpha  occ. eigenvalues --   -0.57134  -0.56459  -0.53929  -0.53147  -0.47096
 Alpha  occ. eigenvalues --   -0.46725  -0.45577  -0.42395  -0.41374  -0.39099
 Alpha virt. eigenvalues --    0.12162   0.16242   0.18115   0.19358   0.20564
 Alpha virt. eigenvalues --    0.21746   0.22686   0.24326   0.25125   0.27290
 Alpha virt. eigenvalues --    0.29340   0.29546   0.32327   0.33670   0.37090

 Mulliken atomic charges:
              1
     1  N   -0.771027
     2  H    0.414027
     3  C   -0.064805
     4  H    0.249153
     5  C    0.771442
     6  O   -0.603376
     7  C   -0.521070
     8  S    0.295775
     9  C    0.098951
    10  N   -0.398019
    11  H    0.254111
    12  H    0.251720
    13  C    0.520584
    14  O   -0.587250
    15  N   -0.936683
    16  H    0.186961
    17  H    0.441559
    18  H    0.397947
 Sum of Mulliken atomic charges =   0.00000

 Dipole moment (field-independent basis, Debye):
    X=             -1.4445    Y=             -0.2241    Z=             -0.6316  Tot=              1.5924
 Quadrupole moment (field-independent basis, Debye-Ang):
   XX=            -76.6744   YY=            -78.6812   ZZ=            -73.3787
   XY=             -4.9428   XZ=             -5.2757   YZ=              7.7334

 Normal termination of Gaussian 09 at Tue Dec 31 09:06:58 2019.
