 Gaussian 09, Revision A.02,
 Gaussian 09:  EM64L-G09RevA.02 11-Jun-2009

 ---------------------------------------------
 #P opt=(,maxcycle=400) HF/6-31G* MaxDisk=50GB
 ---------------------------------------------

 ------------------------------------------------------------------
 ModifiedRes Rotatable Bond Optimization on bme-nova.bme.utexas.edu
 ------------------------------------------------------------------
 Symbolic Z-matrix:
 Charge =  0 Multiplicity = 1

 SCF Done:  E(RHF) =  -903.993267930     A.U. after   16 cycles
 SCF Done:  E(RHF) =  -904.007106086     A.U. after   14 cycles
 SCF Done:  E(RHF) =  -904.009149571     A.U. after   15 cycles
 SCF Done:  E(RHF) =  -904.010675394     A.U. after   15 cycles
 SCF Done:  E(RHF) =  -904.010676701     A.U. after   14 cycles
 SCF Done:  E(RHF) =  -904.011198237     A.U. after   14 cycles
 SCF Done:  E(RHF) =  -904.011396721     A.U. after   14 cycles
 SCF Done:  E(RHF) =  -904.011410776     A.U. after   13 cycles
 SCF Done:  E(RHF) =  -904.011475790     A.U. after   13 cycles
 SCF Done:  E(RHF) =  -904.011475761     A.U. after   12 cycles
 SCF Done:  E(RHF) =  -904.011479557     A.U. after   11 cycles
 SCF Done:  E(RHF) =  -904.011480707     A.U. after   10 cycles
 SCF Done:  E(RHF) =  -904.011481418     A.U. after   11 cycles
 SCF Done:  E(RHF) =  -904.011481484     A.U. after    9 cycles
 Optimization completed.
    -- Stationary point found.

                         Standard orientation:
 ---------------------------------------------------------------------
 Center     Atomic      Atomic             Coordinates (Angstroms)
 Number     Number       Type             X           Y           Z
 ---------------------------------------------------------------------
      1          7           0        0.972571   -0.886724    0.757443
      2          1           0        0.598027   -0.859776    1.680397
      3          6           0        0.605039    0.165552   -0.175950
      4          1           0        0.716198   -0.244974   -1.170183
      5          6           0        1.544218    1.374264   -0.029503
      6          8           0        1.191188    2.377712    0.523150
      7          6           0       -0.834790    0.613870    0.044786
      8         16           0       -1.956493   -0.821506   -0.176580
      9          6           0       -3.448569    0.002056   -0.102417
     10          7           0       -4.456059    0.527174   -0.054377
     11          1           0       -0.966628    1.028204    1.032124
     12          1           0       -1.093049    1.372165   -0.677403
     13          6           0        1.915924   -1.808476    0.474237
     14          8           0        2.538875   -1.848690   -0.548271
     15          7           0        2.763027    1.195826   -0.567015
     16          1           0        2.060693   -2.532838    1.272863
     17          1           0        3.054430    0.305935   -0.909122
     18          1           0        3.446011    1.905664   -0.421715
 ---------------------------------------------------------------------

 The electronic state is 1-A.
 Alpha  occ. eigenvalues --  -92.01088 -20.56945 -20.54873 -15.63318 -15.59694
 Alpha  occ. eigenvalues --  -15.58905 -11.38515 -11.37293 -11.32194 -11.30400
 Alpha  occ. eigenvalues --  -11.30070  -9.01996  -6.70305  -6.70115  -6.69911
 Alpha  occ. eigenvalues --   -1.43378  -1.41614  -1.28588  -1.24297  -1.23199
 Alpha  occ. eigenvalues --   -1.12243  -1.03302  -0.91356  -0.87052  -0.81773
 Alpha  occ. eigenvalues --   -0.76979  -0.75844  -0.71455  -0.69983  -0.67174
 Alpha  occ. eigenvalues --   -0.64517  -0.62829  -0.62085  -0.58994  -0.58409
 Alpha  occ. eigenvalues --   -0.57098  -0.56107  -0.53404  -0.52337  -0.47404
 Alpha  occ. eigenvalues --   -0.46508  -0.46142  -0.42869  -0.41765  -0.38695
 Alpha virt. eigenvalues --    0.12895   0.15864   0.17636   0.19445   0.20878
 Alpha virt. eigenvalues --    0.21184   0.22431   0.23472   0.24297   0.27395
 Alpha virt. eigenvalues --    0.28396   0.29670   0.32295   0.34514   0.37790

 Mulliken atomic charges:
              1
     1  N   -0.768325
     2  H    0.406857
     3  C   -0.100395
     4  H    0.253912
     5  C    0.775421
     6  O   -0.596797
     7  C   -0.492732
     8  S    0.286056
     9  C    0.084615
    10  N   -0.376549
    11  H    0.246026
    12  H    0.252403
    13  C    0.521817
    14  O   -0.579142
    15  N   -0.934320
    16  H    0.182738
    17  H    0.438984
    18  H    0.399431
 Sum of Mulliken atomic charges =   0.00000

 Dipole moment (field-independent basis, Debye):
    X=              4.1324    Y=             -2.0477    Z=              1.5087  Tot=              4.8524
 Quadrupole moment (field-independent basis, Debye-Ang):
   XX=            -89.2619   YY=            -79.2466   ZZ=            -67.5813
   XY=              6.4341   XZ=              2.5714   YZ=             -8.6401

 Normal termination of Gaussian 09 at Tue Dec 31 08:57:59 2019.
