 Gaussian 09, Revision A.02,
 Gaussian 09:  EM64L-G09RevA.02 11-Jun-2009

 ------------------------------------------------------------------
 #P MP2/6-311++G** SP SCF=(qc,maxcycle=800) Guess=Indo MaxDisk=50GB
 ------------------------------------------------------------------

 --------------------------------------------------------------------
 ModifiedRes Rotatable Bond SP Calculation on bme-nova.bme.utexas.edu
 --------------------------------------------------------------------
 Symbolic Z-matrix:
 Charge =  0 Multiplicity = 1

                         Standard orientation:
 ---------------------------------------------------------------------
 Center     Atomic      Atomic             Coordinates (Angstroms)
 Number     Number       Type             X           Y           Z
 ---------------------------------------------------------------------
      1          7           0        1.015394    0.967877   -0.787275
      2          1           0        0.823009    1.032762   -1.782663
      3          6           0        0.494654   -0.174150   -0.007731
      4          1           0        0.303252    0.185200    1.013008
      5          6           0        1.562141   -1.294120    0.044722
      6          8           0        1.456371   -2.288823   -0.677092
      7          6           0       -0.809576   -0.739247   -0.611929
      8         16           0       -2.103332    0.570897   -0.664732
      9          6           0       -3.149586   -0.015495    0.540305
     10          7           0       -3.848074   -0.421380    1.407538
     11          1           0       -0.648263   -1.088603   -1.634129
     12          1           0       -1.116740   -1.596347   -0.008525
     13          6           0        1.776774    1.948225   -0.217202
     14          8           0        2.140097    1.923416    0.964375
     15          7           0        2.585016   -1.093978    0.917701
     16          1           0        2.046581    2.766249   -0.903902
     17          1           0        2.667712   -0.216363    1.423459
     18          1           0        3.293235   -1.812914    0.975463
 ---------------------------------------------------------------------

 SCF Done:  E(RHF) =  -904.159859060     a.u. after   12 cycles
 E2 =    -0.1756773015D+01 EUMP2 =    -0.90591663207510D+03

 The electronic state is 1-A.
 Alpha  occ. eigenvalues --  -92.03059 -20.56343 -20.54506 -15.63770 -15.60228
 Alpha  occ. eigenvalues --  -15.60096 -11.39567 -11.38289 -11.33292 -11.31754
 Alpha  occ. eigenvalues --  -11.31637  -9.03210  -6.71469  -6.71283  -6.71138
 Alpha  occ. eigenvalues --   -1.41426  -1.39952  -1.27648  -1.22876  -1.22771
 Alpha  occ. eigenvalues --   -1.12314  -1.03518  -0.91869  -0.87022  -0.81215
 Alpha  occ. eigenvalues --   -0.76603  -0.75374  -0.71380  -0.70736  -0.67540
 Alpha  occ. eigenvalues --   -0.63893  -0.62454  -0.61615  -0.59262  -0.57783
 Alpha  occ. eigenvalues --   -0.56946  -0.56188  -0.53738  -0.52287  -0.47477
 Alpha  occ. eigenvalues --   -0.46878  -0.45986  -0.43025  -0.42279  -0.39273
 Alpha virt. eigenvalues --    0.02494   0.04395   0.04805   0.05937   0.06985
 Alpha virt. eigenvalues --    0.07617   0.08251   0.08857   0.09513   0.10393
 Alpha virt. eigenvalues --    0.11025   0.11232   0.12147   0.13028   0.13123

 Mulliken atomic charges:
              1
     1  N   -0.165437
     2  H    0.355040
     3  C   -0.394256
     4  H    0.303635
     5  C    0.169403
     6  O   -0.411338
     7  C   -0.507097
     8  S    0.486881
     9  C   -0.351422
    10  N   -0.182727
    11  H    0.295556
    12  H    0.223905
    13  C    0.276202
    14  O   -0.455644
    15  N   -0.477331
    16  H    0.153526
    17  H    0.319211
    18  H    0.361892
 Sum of Mulliken atomic charges =   0.00000

 Dipole moment (field-independent basis, Debye):
    X=              3.2057    Y=              2.1503    Z=             -3.4096  Tot=              5.1503
 Quadrupole moment (field-independent basis, Debye-Ang):
   XX=            -85.5922   YY=            -79.0404   ZZ=            -72.9032
   XY=             -1.9524   XZ=              7.3332   YZ=            -10.7767

 Normal termination of Gaussian 09 at Tue Dec 31 09:08:42 2019.
