 Gaussian 09, Revision A.02,
 Gaussian 09:  EM64L-G09RevA.02 11-Jun-2009

 ---------------------------------------------
 #P opt=(,maxcycle=400) HF/6-31G* MaxDisk=50GB
 ---------------------------------------------

 ------------------------------------------------------------------
 ModifiedRes Rotatable Bond Optimization on bme-nova.bme.utexas.edu
 ------------------------------------------------------------------
 Symbolic Z-matrix:
 Charge =  0 Multiplicity = 1

 SCF Done:  E(RHF) =  -903.960232062     A.U. after   16 cycles
 SCF Done:  E(RHF) =  -903.978584604     A.U. after   14 cycles
 SCF Done:  E(RHF) =  -903.987560030     A.U. after   14 cycles
 SCF Done:  E(RHF) =  -903.995911446     A.U. after   15 cycles
 SCF Done:  E(RHF) =  -903.999228260     A.U. after   13 cycles
 SCF Done:  E(RHF) =  -904.000727603     A.U. after   17 cycles
 SCF Done:  E(RHF) =  -904.001044042     A.U. after   13 cycles
 SCF Done:  E(RHF) =  -904.001028580     A.U. after   14 cycles
 SCF Done:  E(RHF) =  -904.001579509     A.U. after   13 cycles
 SCF Done:  E(RHF) =  -904.002373375     A.U. after   13 cycles
 SCF Done:  E(RHF) =  -904.004442511     A.U. after   13 cycles
 SCF Done:  E(RHF) =  -904.004487723     A.U. after   13 cycles
 SCF Done:  E(RHF) =  -904.004518243     A.U. after   12 cycles
 SCF Done:  E(RHF) =  -904.004533015     A.U. after   12 cycles
 SCF Done:  E(RHF) =  -904.004538285     A.U. after   11 cycles
 SCF Done:  E(RHF) =  -904.004542185     A.U. after   11 cycles
 SCF Done:  E(RHF) =  -904.004545482     A.U. after   11 cycles
 SCF Done:  E(RHF) =  -904.004547471     A.U. after   11 cycles
 SCF Done:  E(RHF) =  -904.004547812     A.U. after   10 cycles
 SCF Done:  E(RHF) =  -904.004547854     A.U. after    9 cycles
 Optimization completed.
    -- Stationary point found.

                         Standard orientation:
 ---------------------------------------------------------------------
 Center     Atomic      Atomic             Coordinates (Angstroms)
 Number     Number       Type             X           Y           Z
 ---------------------------------------------------------------------
      1          7           0        1.219257    0.839267   -0.315827
      2          1           0        1.211078    0.945975   -1.309654
      3          6           0        0.662828   -0.356585    0.268517
      4          1           0        0.611794   -0.201019    1.340781
      5          6           0        1.530016   -1.613076    0.082619
      6          8           0        1.064797   -2.693474    0.310578
      7          6           0       -0.747465   -0.662357   -0.242360
      8         16           0       -1.833045    0.777566    0.088601
      9          6           0       -3.347866    0.004471   -0.040455
     10          7           0       -4.370161   -0.486350   -0.123673
     11          1           0       -0.739912   -0.859699   -1.305760
     12          1           0       -1.135236   -1.527331    0.267987
     13          6           0        1.650508    1.927378    0.380682
     14          8           0        2.085793    2.912084   -0.124328
     15          7           0        2.800411   -1.414420   -0.303886
     16          1           0        1.570566    1.804473    1.460760
     17          1           0        3.175945   -0.511666   -0.472046
     18          1           0        3.395100   -2.209136   -0.380003
 ---------------------------------------------------------------------

 The electronic state is 1-A.
 Alpha  occ. eigenvalues --  -92.01402 -20.56351 -20.55579 -15.63045 -15.61517
 Alpha  occ. eigenvalues --  -15.59096 -11.38467 -11.38119 -11.33512 -11.30841
 Alpha  occ. eigenvalues --  -11.30270  -9.02308  -6.70615  -6.70427  -6.70223
 Alpha  occ. eigenvalues --   -1.43043  -1.42551  -1.29201  -1.24519  -1.24307
 Alpha  occ. eigenvalues --   -1.12362  -1.03447  -0.91569  -0.88810  -0.83475
 Alpha  occ. eigenvalues --   -0.78176  -0.74750  -0.71784  -0.69681  -0.67060
 Alpha  occ. eigenvalues --   -0.65389  -0.63223  -0.62421  -0.61657  -0.58797
 Alpha  occ. eigenvalues --   -0.56640  -0.56301  -0.53803  -0.52586  -0.47814
 Alpha  occ. eigenvalues --   -0.46651  -0.45829  -0.44081  -0.41764  -0.39105
 Alpha virt. eigenvalues --    0.12151   0.16657   0.17385   0.18390   0.20590
 Alpha virt. eigenvalues --    0.20860   0.22181   0.22427   0.23860   0.25403
 Alpha virt. eigenvalues --    0.26898   0.28462   0.30861   0.34415   0.37697

 Mulliken atomic charges:
              1
     1  N   -0.793370
     2  H    0.405925
     3  C   -0.085615
     4  H    0.244788
     5  C    0.769935
     6  O   -0.593816
     7  C   -0.497276
     8  S    0.292569
     9  C    0.084231
    10  N   -0.374848
    11  H    0.227664
    12  H    0.276870
    13  C    0.522344
    14  O   -0.540787
    15  N   -0.924483
    16  H    0.162296
    17  H    0.414355
    18  H    0.409216
 Sum of Mulliken atomic charges =   0.00000

 Dipole moment (field-independent basis, Debye):
    X=              4.9674    Y=             -0.4590    Z=             -0.2172  Tot=              4.9933
 Quadrupole moment (field-independent basis, Debye-Ang):
   XX=            -84.5252   YY=            -92.5024   ZZ=            -66.7898
   XY=            -11.9290   XZ=             -1.3193   YZ=              4.2573

 Normal termination of Gaussian 09 at Mon Dec 30 09:44:05 2019.
