 Gaussian 09, Revision A.02,
 Gaussian 09:  EM64L-G09RevA.02 11-Jun-2009

 ---------------------------------------------
 #P opt=(,maxcycle=400) HF/6-31G* MaxDisk=50GB
 ---------------------------------------------

 ------------------------------------------------------------------
 ModifiedRes Rotatable Bond Optimization on bme-nova.bme.utexas.edu
 ------------------------------------------------------------------
 Symbolic Z-matrix:
 Charge =  0 Multiplicity = 1

 SCF Done:  E(RHF) =  -903.994311069     A.U. after   16 cycles
 SCF Done:  E(RHF) =  -904.008731782     A.U. after   14 cycles
 SCF Done:  E(RHF) =  -904.010601851     A.U. after   14 cycles
 SCF Done:  E(RHF) =  -904.010969785     A.U. after   14 cycles
 SCF Done:  E(RHF) =  -904.010946139     A.U. after   13 cycles
 SCF Done:  E(RHF) =  -904.011199579     A.U. after   14 cycles
 SCF Done:  E(RHF) =  -904.011448057     A.U. after   14 cycles
 SCF Done:  E(RHF) =  -904.011420584     A.U. after   11 cycles
 SCF Done:  E(RHF) =  -904.011473616     A.U. after   12 cycles
 SCF Done:  E(RHF) =  -904.011478968     A.U. after   11 cycles
 SCF Done:  E(RHF) =  -904.011479706     A.U. after   11 cycles
 SCF Done:  E(RHF) =  -904.011481212     A.U. after   10 cycles
 SCF Done:  E(RHF) =  -904.011481454     A.U. after    9 cycles
 SCF Done:  E(RHF) =  -904.011481496     A.U. after    8 cycles
 Optimization completed.
    -- Stationary point found.

                         Standard orientation:
 ---------------------------------------------------------------------
 Center     Atomic      Atomic             Coordinates (Angstroms)
 Number     Number       Type             X           Y           Z
 ---------------------------------------------------------------------
      1          7           0        0.972502   -0.886473    0.757554
      2          1           0        0.596112   -0.860744    1.679777
      3          6           0        0.605176    0.165620   -0.176076
      4          1           0        0.716599   -0.244981   -1.170264
      5          6           0        1.544289    1.374408   -0.029543
      6          8           0        1.190720    2.378395    0.521779
      7          6           0       -0.834661    0.613984    0.044238
      8         16           0       -1.956315   -0.821348   -0.177620
      9          6           0       -3.448482    0.001888   -0.101900
     10          7           0       -4.455886    0.527088   -0.052790
     11          1           0       -0.966773    1.028186    1.031599
     12          1           0       -1.092563    1.372404   -0.677938
     13          6           0        1.915247   -1.808814    0.474426
     14          8           0        2.538688   -1.848980   -0.547792
     15          7           0        2.763685    1.195342   -0.565501
     16          1           0        2.059169   -2.533546    1.272871
     17          1           0        3.055185    0.305349   -0.907258
     18          1           0        3.446526    1.905365   -0.420471
 ---------------------------------------------------------------------

 The electronic state is 1-A.
 Alpha  occ. eigenvalues --  -92.01090 -20.56943 -20.54871 -15.63317 -15.59691
 Alpha  occ. eigenvalues --  -15.58908 -11.38514 -11.37292 -11.32195 -11.30401
 Alpha  occ. eigenvalues --  -11.30072  -9.01999  -6.70307  -6.70117  -6.69913
 Alpha  occ. eigenvalues --   -1.43377  -1.41612  -1.28588  -1.24299  -1.23197
 Alpha  occ. eigenvalues --   -1.12244  -1.03304  -0.91357  -0.87052  -0.81772
 Alpha  occ. eigenvalues --   -0.76977  -0.75844  -0.71457  -0.69984  -0.67174
 Alpha  occ. eigenvalues --   -0.64516  -0.62830  -0.62081  -0.58995  -0.58411
 Alpha  occ. eigenvalues --   -0.57097  -0.56108  -0.53405  -0.52338  -0.47402
 Alpha  occ. eigenvalues --   -0.46509  -0.46142  -0.42865  -0.41763  -0.38697
 Alpha virt. eigenvalues --    0.12893   0.15866   0.17637   0.19444   0.20873
 Alpha virt. eigenvalues --    0.21182   0.22429   0.23473   0.24298   0.27396
 Alpha virt. eigenvalues --    0.28399   0.29670   0.32295   0.34510   0.37793

 Mulliken atomic charges:
              1
     1  N   -0.768345
     2  H    0.406887
     3  C   -0.100399
     4  H    0.253904
     5  C    0.775541
     6  O   -0.596807
     7  C   -0.492742
     8  S    0.285960
     9  C    0.084632
    10  N   -0.376521
    11  H    0.246017
    12  H    0.252446
    13  C    0.521836
    14  O   -0.579200
    15  N   -0.934402
    16  H    0.182737
    17  H    0.439014
    18  H    0.399441
 Sum of Mulliken atomic charges =   0.00000

 Dipole moment (field-independent basis, Debye):
    X=              4.1281    Y=             -2.0505    Z=              1.5074  Tot=              4.8495
 Quadrupole moment (field-independent basis, Debye-Ang):
   XX=            -89.2638   YY=            -79.2473   ZZ=            -67.5806
   XY=              6.4400   XZ=              2.5775   YZ=             -8.6390

 Normal termination of Gaussian 09 at Tue Dec 31 08:53:51 2019.
