 Gaussian 09, Revision A.02,
 Gaussian 09:  EM64L-G09RevA.02 11-Jun-2009

 ---------------------------------------------
 #P opt=(,maxcycle=400) HF/6-31G* MaxDisk=50GB
 ---------------------------------------------

 ------------------------------------------------------------------
 ModifiedRes Rotatable Bond Optimization on bme-nova.bme.utexas.edu
 ------------------------------------------------------------------
 Symbolic Z-matrix:
 Charge =  0 Multiplicity = 1

 SCF Done:  E(RHF) =  -903.992457042     A.U. after   16 cycles
 SCF Done:  E(RHF) =  -904.007868065     A.U. after   15 cycles
 SCF Done:  E(RHF) =  -904.010187128     A.U. after   16 cycles
 SCF Done:  E(RHF) =  -904.010131965     A.U. after   17 cycles
 SCF Done:  E(RHF) =  -904.011372028     A.U. after   14 cycles
 SCF Done:  E(RHF) =  -904.011917794     A.U. after   13 cycles
 SCF Done:  E(RHF) =  -904.011807553     A.U. after   14 cycles
 SCF Done:  E(RHF) =  -904.012006908     A.U. after   13 cycles
 SCF Done:  E(RHF) =  -904.012017289     A.U. after   12 cycles
 SCF Done:  E(RHF) =  -904.012020643     A.U. after   11 cycles
 SCF Done:  E(RHF) =  -904.012024449     A.U. after   11 cycles
 SCF Done:  E(RHF) =  -904.012025850     A.U. after   11 cycles
 SCF Done:  E(RHF) =  -904.012026153     A.U. after   10 cycles
 Optimization completed.
    -- Stationary point found.

                         Standard orientation:
 ---------------------------------------------------------------------
 Center     Atomic      Atomic             Coordinates (Angstroms)
 Number     Number       Type             X           Y           Z
 ---------------------------------------------------------------------
      1          7           0        0.711621    0.705401   -1.055472
      2          1           0        0.525748    0.438298   -1.996050
      3          6           0        0.433889   -0.236467    0.013586
      4          1           0        0.158303    0.341360    0.885022
      5          6           0        1.694063   -1.057700    0.334384
      6          8           0        1.820682   -2.185352   -0.056264
      7          6           0       -0.693871   -1.194470   -0.356971
      8         16           0       -2.287854   -0.399786   -0.763998
      9          6           0       -2.663781    0.296663    0.747994
     10          7           0       -2.927037    0.767600    1.749151
     11          1           0       -0.439323   -1.765267   -1.239485
     12          1           0       -0.851734   -1.901614    0.442137
     13          6           0        1.231082    1.926782   -0.825326
     14          8           0        1.567751    2.329393    0.251822
     15          7           0        2.609321   -0.406021    1.070628
     16          1           0        1.323617    2.530104   -1.726112
     17          1           0        2.527060    0.572646    1.243941
     18          1           0        3.488899   -0.848980    1.217903
 ---------------------------------------------------------------------

 The electronic state is 1-A.
 Alpha  occ. eigenvalues --  -92.01319 -20.56204 -20.54431 -15.62624 -15.59238
 Alpha  occ. eigenvalues --  -15.59193 -11.37820 -11.36812 -11.31508 -11.30578
 Alpha  occ. eigenvalues --  -11.30340  -9.02223  -6.70535  -6.70339  -6.70142
 Alpha  occ. eigenvalues --   -1.42670  -1.41118  -1.27936  -1.24611  -1.22736
 Alpha  occ. eigenvalues --   -1.12236  -1.03037  -0.91641  -0.86470  -0.81126
 Alpha  occ. eigenvalues --   -0.76783  -0.75107  -0.70867  -0.70106  -0.66464
 Alpha  occ. eigenvalues --   -0.63584  -0.62641  -0.61844  -0.59555  -0.57610
 Alpha  occ. eigenvalues --   -0.56977  -0.55493  -0.53822  -0.52752  -0.46782
 Alpha  occ. eigenvalues --   -0.46530  -0.45728  -0.42435  -0.40964  -0.39144
 Alpha virt. eigenvalues --    0.12460   0.16574   0.18348   0.19275   0.20449
 Alpha virt. eigenvalues --    0.21507   0.22784   0.23871   0.24870   0.27226
 Alpha virt. eigenvalues --    0.29133   0.29873   0.32481   0.34210   0.37841

 Mulliken atomic charges:
              1
     1  N   -0.758013
     2  H    0.399546
     3  C   -0.077321
     4  H    0.259662
     5  C    0.772143
     6  O   -0.604995
     7  C   -0.519423
     8  S    0.283000
     9  C    0.093545
    10  N   -0.376963
    11  H    0.243630
    12  H    0.257293
    13  C    0.523377
    14  O   -0.580449
    15  N   -0.930982
    16  H    0.178125
    17  H    0.440681
    18  H    0.397145
 Sum of Mulliken atomic charges =   0.00000

 Dipole moment (field-independent basis, Debye):
    X=              1.8536    Y=             -0.2882    Z=             -4.0639  Tot=              4.4759
 Quadrupole moment (field-independent basis, Debye-Ang):
   XX=            -75.2888   YY=            -82.7271   ZZ=            -68.4629
   XY=              6.2146   XZ=              7.0742   YZ=             -7.7308

 Normal termination of Gaussian 09 at Tue Dec 31 09:07:04 2019.
