 Gaussian 09, Revision A.02,
 Gaussian 09:  EM64L-G09RevA.02 11-Jun-2009

 ---------------------------------------------
 #P opt=(,maxcycle=400) HF/6-31G* MaxDisk=50GB
 ---------------------------------------------

 ------------------------------------------------------------------
 ModifiedRes Rotatable Bond Optimization on bme-nova.bme.utexas.edu
 ------------------------------------------------------------------
 Symbolic Z-matrix:
 Charge =  0 Multiplicity = 1

 SCF Done:  E(RHF) =  -903.979971006     A.U. after   16 cycles
 SCF Done:  E(RHF) =  -903.995106815     A.U. after   14 cycles
 SCF Done:  E(RHF) =  -903.997366265     A.U. after   17 cycles
 SCF Done:  E(RHF) =  -903.999968168     A.U. after   17 cycles
 SCF Done:  E(RHF) =  -904.003705055     A.U. after   15 cycles
 SCF Done:  E(RHF) =  -904.005318734     A.U. after   17 cycles
 SCF Done:  E(RHF) =  -904.005639628     A.U. after   15 cycles
 SCF Done:  E(RHF) =  -904.006494099     A.U. after   13 cycles
 SCF Done:  E(RHF) =  -904.006748413     A.U. after   13 cycles
 SCF Done:  E(RHF) =  -904.007007158     A.U. after   13 cycles
 SCF Done:  E(RHF) =  -904.010040596     A.U. after   15 cycles
 SCF Done:  E(RHF) =  -904.011205713     A.U. after   14 cycles
 SCF Done:  E(RHF) =  -904.011319244     A.U. after   13 cycles
 SCF Done:  E(RHF) =  -904.011422622     A.U. after   13 cycles
 SCF Done:  E(RHF) =  -904.011459909     A.U. after   12 cycles
 SCF Done:  E(RHF) =  -904.011474450     A.U. after   12 cycles
 SCF Done:  E(RHF) =  -904.011479585     A.U. after   11 cycles
 SCF Done:  E(RHF) =  -904.011480827     A.U. after   10 cycles
 SCF Done:  E(RHF) =  -904.011481364     A.U. after   10 cycles
 SCF Done:  E(RHF) =  -904.011481486     A.U. after    8 cycles
 Optimization completed.
    -- Stationary point found.

                         Standard orientation:
 ---------------------------------------------------------------------
 Center     Atomic      Atomic             Coordinates (Angstroms)
 Number     Number       Type             X           Y           Z
 ---------------------------------------------------------------------
      1          7           0        0.972428   -0.886166    0.757613
      2          1           0        0.596831   -0.859532    1.680134
      3          6           0        0.605177    0.165749   -0.176351
      4          1           0        0.716720   -0.245129   -1.170377
      5          6           0        1.544517    1.374324   -0.029673
      6          8           0        1.191652    2.377887    0.522864
      7          6           0       -0.834651    0.614193    0.043826
      8         16           0       -1.956312   -0.821243   -0.177109
      9          6           0       -3.448471    0.002057   -0.101989
     10          7           0       -4.455878    0.527288   -0.053283
     11          1           0       -0.966635    1.028967    1.030962
     12          1           0       -1.092721    1.372222   -0.678715
     13          6           0        1.914926   -1.808776    0.474626
     14          8           0        2.537977   -1.849600   -0.547819
     15          7           0        2.763461    1.195319   -0.566634
     16          1           0        2.059166   -2.533063    1.273415
     17          1           0        3.054754    0.305086   -0.907957
     18          1           0        3.446768    1.904677   -0.420583
 ---------------------------------------------------------------------

 The electronic state is 1-A.
 Alpha  occ. eigenvalues --  -92.01090 -20.56943 -20.54874 -15.63317 -15.59694
 Alpha  occ. eigenvalues --  -15.58907 -11.38514 -11.37293 -11.32195 -11.30401
 Alpha  occ. eigenvalues --  -11.30072  -9.01998  -6.70307  -6.70117  -6.69913
 Alpha  occ. eigenvalues --   -1.43376  -1.41615  -1.28588  -1.24299  -1.23201
 Alpha  occ. eigenvalues --   -1.12245  -1.03304  -0.91358  -0.87052  -0.81774
 Alpha  occ. eigenvalues --   -0.76979  -0.75843  -0.71457  -0.69983  -0.67175
 Alpha  occ. eigenvalues --   -0.64516  -0.62831  -0.62085  -0.58995  -0.58409
 Alpha  occ. eigenvalues --   -0.57101  -0.56109  -0.53406  -0.52338  -0.47401
 Alpha  occ. eigenvalues --   -0.46508  -0.46143  -0.42870  -0.41765  -0.38696
 Alpha virt. eigenvalues --    0.12894   0.15865   0.17637   0.19444   0.20873
 Alpha virt. eigenvalues --    0.21181   0.22431   0.23473   0.24297   0.27396
 Alpha virt. eigenvalues --    0.28398   0.29669   0.32294   0.34512   0.37791

 Mulliken atomic charges:
              1
     1  N   -0.768329
     2  H    0.406887
     3  C   -0.100434
     4  H    0.253953
     5  C    0.775455
     6  O   -0.596784
     7  C   -0.492771
     8  S    0.286025
     9  C    0.084620
    10  N   -0.376525
    11  H    0.246052
    12  H    0.252397
    13  C    0.521797
    14  O   -0.579187
    15  N   -0.934266
    16  H    0.182740
    17  H    0.438960
    18  H    0.399412
 Sum of Mulliken atomic charges =   0.00000

 Dipole moment (field-independent basis, Debye):
    X=              4.1290    Y=             -2.0483    Z=              1.5084  Tot=              4.8497
 Quadrupole moment (field-independent basis, Debye-Ang):
   XX=            -89.2569   YY=            -79.2547   ZZ=            -67.5844
   XY=              6.4350   XZ=              2.5805   YZ=             -8.6393

 Normal termination of Gaussian 09 at Mon Dec 30 10:04:12 2019.
