 Gaussian 09, Revision A.02,
 Gaussian 09:  EM64L-G09RevA.02 11-Jun-2009

 ------------------------------------------------------------------
 #P MP2/6-311++G** SP SCF=(qc,maxcycle=800) Guess=Indo MaxDisk=50GB
 ------------------------------------------------------------------

 --------------------------------------------------------------------
 ModifiedRes Rotatable Bond SP Calculation on bme-nova.bme.utexas.edu
 --------------------------------------------------------------------
 Symbolic Z-matrix:
 Charge =  0 Multiplicity = 1

                         Standard orientation:
 ---------------------------------------------------------------------
 Center     Atomic      Atomic             Coordinates (Angstroms)
 Number     Number       Type             X           Y           Z
 ---------------------------------------------------------------------
      1          7           0        0.960711   -1.048929    0.572755
      2          1           0        0.403220   -1.290366    1.387752
      3          6           0        0.555645    0.108234   -0.258034
      4          1           0        0.638471   -0.213465   -1.304253
      5          6           0        1.494994    1.326269   -0.019330
      6          8           0        1.100798    2.277747    0.660117
      7          6           0       -0.895968    0.540432    0.049240
      8         16           0       -2.059599   -0.851176   -0.264181
      9          6           0       -3.532291   -0.026630   -0.064654
     10          7           0       -4.573894    0.522502    0.068525
     11          1           0       -0.991653    0.865190    1.087768
     12          1           0       -1.171778    1.374107   -0.600824
     13          6           0        2.138292   -1.736689    0.462319
     14          8           0        3.028595   -1.488857   -0.358512
     15          7           0        2.729993    1.290326   -0.580683
     16          1           0        2.226358   -2.562687    1.186882
     17          1           0        3.103189    0.429451   -0.965728
     18          1           0        3.328925    2.088482   -0.418972
 ---------------------------------------------------------------------

 SCF Done:  E(RHF) =  -904.157839023     a.u. after   11 cycles
 E2 =    -0.1756408463D+01 EUMP2 =    -0.90591424748600D+03

 The electronic state is 1-A.
 Alpha  occ. eigenvalues --  -92.03203 -20.56833 -20.54364 -15.64164 -15.60403
 Alpha  occ. eigenvalues --  -15.59674 -11.40036 -11.38476 -11.34406 -11.31884
 Alpha  occ. eigenvalues --  -11.31849  -9.03358  -6.71619  -6.71436  -6.71282
 Alpha  occ. eigenvalues --   -1.41831  -1.39977  -1.28078  -1.23067  -1.22500
 Alpha  occ. eigenvalues --   -1.12613  -1.03984  -0.91761  -0.87478  -0.80577
 Alpha  occ. eigenvalues --   -0.76927  -0.75820  -0.71924  -0.70061  -0.67932
 Alpha  occ. eigenvalues --   -0.64356  -0.62244  -0.62196  -0.59808  -0.57938
 Alpha  occ. eigenvalues --   -0.57006  -0.56651  -0.53825  -0.52192  -0.47961
 Alpha  occ. eigenvalues --   -0.47122  -0.46029  -0.43126  -0.42112  -0.39472
 Alpha virt. eigenvalues --    0.02706   0.04203   0.05232   0.05494   0.06993
 Alpha virt. eigenvalues --    0.07392   0.08647   0.08715   0.09422   0.10424
 Alpha virt. eigenvalues --    0.10795   0.11775   0.12425   0.12601   0.13247

 Mulliken atomic charges:
              1
     1  N   -0.163353
     2  H    0.319737
     3  C   -0.151689
     4  H    0.252179
     5  C    0.171725
     6  O   -0.398109
     7  C   -0.600749
     8  S    0.156857
     9  C   -0.161549
    10  N   -0.184506
    11  H    0.284822
    12  H    0.248198
    13  C    0.324200
    14  O   -0.471326
    15  N   -0.475700
    16  H    0.165725
    17  H    0.330512
    18  H    0.353026
 Sum of Mulliken atomic charges =   0.00000

 Dipole moment (field-independent basis, Debye):
    X=              3.3290    Y=             -2.9718    Z=              0.3744  Tot=              4.4782
 Quadrupole moment (field-independent basis, Debye-Ang):
   XX=            -97.6151   YY=            -76.8061   ZZ=            -69.8141
   XY=              6.7879   XZ=              2.0007   YZ=             -9.4056

 Normal termination of Gaussian 09 at Mon Dec 30 10:01:35 2019.
