 Gaussian 09, Revision A.02,
 Gaussian 09:  EM64L-G09RevA.02 11-Jun-2009

 ------------------------------------------------------------------
 #P MP2/6-311++G** SP SCF=(qc,maxcycle=800) Guess=Indo MaxDisk=50GB
 ------------------------------------------------------------------

 --------------------------------------------------------------------
 ModifiedRes Rotatable Bond SP Calculation on bme-nova.bme.utexas.edu
 --------------------------------------------------------------------
 Symbolic Z-matrix:
 Charge =  0 Multiplicity = 1

                         Standard orientation:
 ---------------------------------------------------------------------
 Center     Atomic      Atomic             Coordinates (Angstroms)
 Number     Number       Type             X           Y           Z
 ---------------------------------------------------------------------
      1          7           0        1.002777   -0.905848    0.776170
      2          1           0        0.623974   -0.869170    1.718141
      3          6           0        0.611106    0.154412   -0.176070
      4          1           0        0.726059   -0.262876   -1.186036
      5          6           0        1.551078    1.374916   -0.027907
      6          8           0        1.161462    2.394888    0.545016
      7          6           0       -0.852255    0.592417    0.039147
      8         16           0       -1.990159   -0.839124   -0.176509
      9          6           0       -3.474097   -0.013064   -0.105976
     10          7           0       -4.522616    0.537568   -0.060522
     11          1           0       -0.987996    1.014055    1.037547
     12          1           0       -1.113538    1.355772   -0.697502
     13          6           0        1.978691   -1.816846    0.488218
     14          8           0        2.605317   -1.821505   -0.577379
     15          7           0        2.793683    1.232092   -0.561321
     16          1           0        2.146662   -2.563638    1.280108
     17          1           0        3.084111    0.349648   -0.973300
     18          1           0        3.424992    2.017435   -0.480662
 ---------------------------------------------------------------------

 SCF Done:  E(RHF) =  -904.162468854     a.u. after   11 cycles
 E2 =    -0.1755614015D+01 EUMP2 =    -0.90591808286877D+03

 The electronic state is 1-A.
 Alpha  occ. eigenvalues --  -92.02866 -20.56673 -20.54829 -15.64006 -15.60607
 Alpha  occ. eigenvalues --  -15.60105 -11.39883 -11.38726 -11.33834 -11.31614
 Alpha  occ. eigenvalues --  -11.31488  -9.03012  -6.71269  -6.71088  -6.70933
 Alpha  occ. eigenvalues --   -1.41787  -1.40292  -1.27962  -1.23137  -1.22778
 Alpha  occ. eigenvalues --   -1.12290  -1.03745  -0.91681  -0.87364  -0.81647
 Alpha  occ. eigenvalues --   -0.76860  -0.75806  -0.71673  -0.70140  -0.67696
 Alpha  occ. eigenvalues --   -0.64361  -0.62868  -0.62070  -0.59037  -0.58321
 Alpha  occ. eigenvalues --   -0.56993  -0.56653  -0.53441  -0.51925  -0.47843
 Alpha  occ. eigenvalues --   -0.47100  -0.45864  -0.43354  -0.42720  -0.39100
 Alpha virt. eigenvalues --    0.02689   0.04095   0.05143   0.05471   0.07173
 Alpha virt. eigenvalues --    0.07522   0.08502   0.08742   0.09471   0.10659
 Alpha virt. eigenvalues --    0.10807   0.11822   0.12585   0.12790   0.13096

 Mulliken atomic charges:
              1
     1  N   -0.110168
     2  H    0.335207
     3  C   -0.385604
     4  H    0.271924
     5  C    0.251787
     6  O   -0.400914
     7  C   -0.463138
     8  S    0.127017
     9  C   -0.109072
    10  N   -0.198228
    11  H    0.258983
    12  H    0.237174
    13  C    0.289847
    14  O   -0.450136
    15  N   -0.503096
    16  H    0.160743
    17  H    0.319172
    18  H    0.368503
 Sum of Mulliken atomic charges =   0.00000

 Dipole moment (field-independent basis, Debye):
    X=              4.2526    Y=             -2.2663    Z=              1.3424  Tot=              5.0022
 Quadrupole moment (field-independent basis, Debye-Ang):
   XX=            -93.1679   YY=            -80.6637   ZZ=            -68.6396
   XY=              7.2319   XZ=              2.2778   YZ=            -10.1106

 Normal termination of Gaussian 09 at Mon Dec 30 09:43:13 2019.
