 Gaussian 09, Revision A.02,
 Gaussian 09:  EM64L-G09RevA.02 11-Jun-2009

 ------------------------------------------------------------------
 #P MP2/6-311++G** SP SCF=(qc,maxcycle=800) Guess=Indo MaxDisk=50GB
 ------------------------------------------------------------------

 --------------------------------------------------------------------
 ModifiedRes Rotatable Bond SP Calculation on bme-nova.bme.utexas.edu
 --------------------------------------------------------------------
 Symbolic Z-matrix:
 Charge =  0 Multiplicity = 1

                         Standard orientation:
 ---------------------------------------------------------------------
 Center     Atomic      Atomic             Coordinates (Angstroms)
 Number     Number       Type             X           Y           Z
 ---------------------------------------------------------------------
      1          7           0       -1.323963    1.195859    0.463919
      2          1           0       -2.203916    1.209435    0.973224
      3          6           0       -1.014708   -0.028818   -0.317575
      4          1           0       -1.061255    0.263833   -1.373735
      5          6           0       -2.078914   -1.121367   -0.021482
      6          8           0       -1.819861   -2.089034    0.694277
      7          6           0        0.388379   -0.632568   -0.004679
      8         16           0        1.901027    0.380530   -0.283129
      9          6           0        3.047299   -0.846064    0.001103
     10          7           0        3.865223   -1.683659    0.194638
     11          1           0        0.402873   -0.920465    1.050318
     12          1           0        0.503306   -1.508759   -0.649896
     13          6           0       -0.683610    2.403378    0.467764
     14          8           0        0.303463    2.686066   -0.207535
     15          7           0       -3.294385   -0.926566   -0.602436
     16          1           0       -1.145134    3.132531    1.154248
     17          1           0       -3.465519   -0.153047   -1.233735
     18          1           0       -3.994397   -1.635073   -0.427926
 ---------------------------------------------------------------------

 SCF Done:  E(RHF) =  -904.141046284     a.u. after   11 cycles
 E2 =    -0.1758374030D+01 EUMP2 =    -0.90589942031379D+03

 The electronic state is 1-A.
 Alpha  occ. eigenvalues --  -92.00581 -20.56634 -20.55778 -15.63514 -15.63299
 Alpha  occ. eigenvalues --  -15.58228 -11.40784 -11.39001 -11.34748 -11.30103
 Alpha  occ. eigenvalues --  -11.29650  -9.00696  -6.68919  -6.68740  -6.68569
 Alpha  occ. eigenvalues --   -1.42258  -1.40877  -1.27735  -1.25256  -1.20913
 Alpha  occ. eigenvalues --   -1.10853  -1.03363  -0.91478  -0.86138  -0.81694
 Alpha  occ. eigenvalues --   -0.79196  -0.74948  -0.71619  -0.70074  -0.67576
 Alpha  occ. eigenvalues --   -0.64775  -0.62809  -0.61306  -0.60409  -0.58427
 Alpha  occ. eigenvalues --   -0.56217  -0.55275  -0.51298  -0.49935  -0.47575
 Alpha  occ. eigenvalues --   -0.46030  -0.45585  -0.43781  -0.42948  -0.36935
 Alpha virt. eigenvalues --    0.01445   0.03408   0.04578   0.05762   0.06667
 Alpha virt. eigenvalues --    0.07738   0.08489   0.09103   0.09545   0.11119
 Alpha virt. eigenvalues --    0.11820   0.12492   0.12732   0.12971   0.13365

 Mulliken atomic charges:
              1
     1  N   -0.213457
     2  H    0.348252
     3  C    0.016921
     4  H    0.219808
     5  C   -0.035694
     6  O   -0.366009
     7  C   -0.364694
     8  S    0.107836
     9  C   -0.127188
    10  N   -0.226403
    11  H    0.248889
    12  H    0.215857
    13  C    0.254558
    14  O   -0.402166
    15  N   -0.488157
    16  H    0.144463
    17  H    0.306124
    18  H    0.361059
 Sum of Mulliken atomic charges =   0.00000

 Dipole moment (field-independent basis, Debye):
    X=             -9.7097    Y=              2.6393    Z=             -1.1395  Tot=             10.1263
 Quadrupole moment (field-independent basis, Debye-Ang):
   XX=            -73.2791   YY=            -86.1521   ZZ=            -70.2317
   XY=              0.8005   XZ=              3.5508   YZ=              9.4430

 Normal termination of Gaussian 09 at Mon Dec 30 09:58:46 2019.
