 Gaussian 09, Revision A.02,
 Gaussian 09:  EM64L-G09RevA.02 11-Jun-2009

 ---------------------------------------------
 #P opt=(,maxcycle=400) HF/6-31G* MaxDisk=50GB
 ---------------------------------------------

 ------------------------------------------------------------------
 ModifiedRes Rotatable Bond Optimization on bme-nova.bme.utexas.edu
 ------------------------------------------------------------------
 Symbolic Z-matrix:
 Charge =  0 Multiplicity = 1

 SCF Done:  E(RHF) =  -903.990233169     A.U. after   16 cycles
 SCF Done:  E(RHF) =  -904.005187744     A.U. after   14 cycles
 SCF Done:  E(RHF) =  -904.006544589     A.U. after   15 cycles
 SCF Done:  E(RHF) =  -904.007105478     A.U. after   13 cycles
 SCF Done:  E(RHF) =  -904.007641530     A.U. after   14 cycles
 SCF Done:  E(RHF) =  -904.008993248     A.U. after   13 cycles
 SCF Done:  E(RHF) =  -904.007225331     A.U. after   15 cycles
 SCF Done:  E(RHF) =  -904.009569448     A.U. after   14 cycles
 SCF Done:  E(RHF) =  -904.010588333     A.U. after   13 cycles
 SCF Done:  E(RHF) =  -904.009945116     A.U. after   13 cycles
 SCF Done:  E(RHF) =  -904.010967627     A.U. after   13 cycles
 SCF Done:  E(RHF) =  -904.011237713     A.U. after   12 cycles
 SCF Done:  E(RHF) =  -904.011399897     A.U. after   13 cycles
 SCF Done:  E(RHF) =  -904.011453196     A.U. after   12 cycles
 SCF Done:  E(RHF) =  -904.011474138     A.U. after   12 cycles
 SCF Done:  E(RHF) =  -904.011478976     A.U. after   11 cycles
 SCF Done:  E(RHF) =  -904.011480786     A.U. after   11 cycles
 SCF Done:  E(RHF) =  -904.011481354     A.U. after   11 cycles
 SCF Done:  E(RHF) =  -904.011481508     A.U. after    9 cycles
 SCF Done:  E(RHF) =  -904.011481522     A.U. after    7 cycles
 Optimization completed.
    -- Stationary point found.

                         Standard orientation:
 ---------------------------------------------------------------------
 Center     Atomic      Atomic             Coordinates (Angstroms)
 Number     Number       Type             X           Y           Z
 ---------------------------------------------------------------------
      1          7           0        0.972402   -0.886524    0.757487
      2          1           0        0.596398   -0.860390    1.679860
      3          6           0        0.605148    0.165573   -0.176217
      4          1           0        0.716616   -0.245060   -1.170377
      5          6           0        1.544340    1.374251   -0.029475
      6          8           0        1.191272    2.377661    0.523219
      7          6           0       -0.834680    0.614010    0.044019
      8         16           0       -1.956408   -0.821331   -0.177297
      9          6           0       -3.448504    0.002065   -0.102033
     10          7           0       -4.455975    0.527169   -0.053260
     11          1           0       -0.966705    1.028581    1.031231
     12          1           0       -1.092649    1.372175   -0.678416
     13          6           0        1.915383   -1.808687    0.474539
     14          8           0        2.538833   -1.848914   -0.547670
     15          7           0        2.763194    1.195781   -0.566906
     16          1           0        2.059486   -2.533244    1.273108
     17          1           0        3.054743    0.305683   -0.908373
     18          1           0        3.446331    1.905331   -0.420925
 ---------------------------------------------------------------------

 The electronic state is 1-A.
 Alpha  occ. eigenvalues --  -92.01090 -20.56944 -20.54873 -15.63317 -15.59693
 Alpha  occ. eigenvalues --  -15.58907 -11.38514 -11.37293 -11.32195 -11.30401
 Alpha  occ. eigenvalues --  -11.30072  -9.01998  -6.70307  -6.70117  -6.69913
 Alpha  occ. eigenvalues --   -1.43377  -1.41614  -1.28588  -1.24299  -1.23199
 Alpha  occ. eigenvalues --   -1.12245  -1.03304  -0.91357  -0.87053  -0.81772
 Alpha  occ. eigenvalues --   -0.76977  -0.75843  -0.71458  -0.69982  -0.67175
 Alpha  occ. eigenvalues --   -0.64517  -0.62831  -0.62085  -0.58995  -0.58407
 Alpha  occ. eigenvalues --   -0.57100  -0.56108  -0.53406  -0.52338  -0.47402
 Alpha  occ. eigenvalues --   -0.46509  -0.46143  -0.42870  -0.41764  -0.38697
 Alpha virt. eigenvalues --    0.12893   0.15867   0.17635   0.19444   0.20874
 Alpha virt. eigenvalues --    0.21182   0.22430   0.23472   0.24298   0.27396
 Alpha virt. eigenvalues --    0.28398   0.29670   0.32295   0.34511   0.37791

 Mulliken atomic charges:
              1
     1  N   -0.768349
     2  H    0.406888
     3  C   -0.100369
     4  H    0.253911
     5  C    0.775443
     6  O   -0.596781
     7  C   -0.492792
     8  S    0.286003
     9  C    0.084630
    10  N   -0.376527
    11  H    0.246066
    12  H    0.252404
    13  C    0.521811
    14  O   -0.579174
    15  N   -0.934275
    16  H    0.182736
    17  H    0.438970
    18  H    0.399406
 Sum of Mulliken atomic charges =   0.00000

 Dipole moment (field-independent basis, Debye):
    X=              4.1283    Y=             -2.0495    Z=              1.5073  Tot=              4.8493
 Quadrupole moment (field-independent basis, Debye-Ang):
   XX=            -89.2644   YY=            -79.2448   ZZ=            -67.5859
   XY=              6.4359   XZ=              2.5783   YZ=             -8.6401

 Normal termination of Gaussian 09 at Mon Dec 30 10:03:00 2019.
