 Gaussian 09, Revision A.02,
 Gaussian 09:  EM64L-G09RevA.02 11-Jun-2009

 ---------------------------------------------
 #P opt=(,maxcycle=400) HF/6-31G* MaxDisk=50GB
 ---------------------------------------------

 ------------------------------------------------------------------
 ModifiedRes Rotatable Bond Optimization on bme-nova.bme.utexas.edu
 ------------------------------------------------------------------
 Symbolic Z-matrix:
 Charge =  0 Multiplicity = 1

 SCF Done:  E(RHF) =  -903.994990594     A.U. after   16 cycles
 SCF Done:  E(RHF) =  -904.008729007     A.U. after   14 cycles
 SCF Done:  E(RHF) =  -904.009701139     A.U. after   14 cycles
 SCF Done:  E(RHF) =  -904.010833049     A.U. after   16 cycles
 SCF Done:  E(RHF) =  -904.011000417     A.U. after   17 cycles
 SCF Done:  E(RHF) =  -904.011622419     A.U. after   13 cycles
 SCF Done:  E(RHF) =  -904.011287412     A.U. after   16 cycles
 SCF Done:  E(RHF) =  -904.011858139     A.U. after   16 cycles
 SCF Done:  E(RHF) =  -904.011901113     A.U. after   14 cycles
 SCF Done:  E(RHF) =  -904.011988525     A.U. after   12 cycles
 SCF Done:  E(RHF) =  -904.012011576     A.U. after   12 cycles
 SCF Done:  E(RHF) =  -904.012022392     A.U. after   12 cycles
 SCF Done:  E(RHF) =  -904.012025675     A.U. after   11 cycles
 SCF Done:  E(RHF) =  -904.012025943     A.U. after   10 cycles
 SCF Done:  E(RHF) =  -904.012026107     A.U. after    9 cycles
 Optimization completed.
    -- Stationary point found.

                         Standard orientation:
 ---------------------------------------------------------------------
 Center     Atomic      Atomic             Coordinates (Angstroms)
 Number     Number       Type             X           Y           Z
 ---------------------------------------------------------------------
      1          7           0        0.712459    0.705746   -1.055366
      2          1           0        0.527308    0.438976   -1.996202
      3          6           0        0.433946   -0.236323    0.013102
      4          1           0        0.158133    0.341192    0.884698
      5          6           0        1.693701   -1.058210    0.334281
      6          8           0        1.820203   -2.185787   -0.056581
      7          6           0       -0.694048   -1.193764   -0.358211
      8         16           0       -2.287966   -0.398449   -0.764480
      9          6           0       -2.664387    0.296231    0.748174
     10          7           0       -2.928307    0.766102    1.749687
     11          1           0       -0.439502   -1.764006   -1.241070
     12          1           0       -0.852018   -1.901284    0.440531
     13          6           0        1.232434    1.926865   -0.824567
     14          8           0        1.568802    2.329004    0.252851
     15          7           0        2.608766   -0.407048    1.071383
     16          1           0        1.325628    2.530365   -1.725163
     17          1           0        2.527148    0.571840    1.243854
     18          1           0        3.488412   -0.850038    1.218259
 ---------------------------------------------------------------------

 The electronic state is 1-A.
 Alpha  occ. eigenvalues --  -92.01319 -20.56209 -20.54435 -15.62626 -15.59239
 Alpha  occ. eigenvalues --  -15.59192 -11.37825 -11.36814 -11.31509 -11.30579
 Alpha  occ. eigenvalues --  -11.30340  -9.02223  -6.70535  -6.70339  -6.70141
 Alpha  occ. eigenvalues --   -1.42674  -1.41120  -1.27941  -1.24609  -1.22734
 Alpha  occ. eigenvalues --   -1.12236  -1.03037  -0.91642  -0.86473  -0.81126
 Alpha  occ. eigenvalues --   -0.76783  -0.75105  -0.70869  -0.70106  -0.66465
 Alpha  occ. eigenvalues --   -0.63586  -0.62643  -0.61846  -0.59556  -0.57611
 Alpha  occ. eigenvalues --   -0.56978  -0.55494  -0.53821  -0.52752  -0.46786
 Alpha  occ. eigenvalues --   -0.46528  -0.45732  -0.42438  -0.40964  -0.39143
 Alpha virt. eigenvalues --    0.12459   0.16570   0.18346   0.19272   0.20450
 Alpha virt. eigenvalues --    0.21505   0.22782   0.23872   0.24871   0.27222
 Alpha virt. eigenvalues --    0.29133   0.29874   0.32483   0.34209   0.37842

 Mulliken atomic charges:
              1
     1  N   -0.758010
     2  H    0.399544
     3  C   -0.077337
     4  H    0.259671
     5  C    0.772014
     6  O   -0.604921
     7  C   -0.519377
     8  S    0.283002
     9  C    0.093548
    10  N   -0.376954
    11  H    0.243596
    12  H    0.257300
    13  C    0.523357
    14  O   -0.580402
    15  N   -0.930941
    16  H    0.178143
    17  H    0.440668
    18  H    0.397100
 Sum of Mulliken atomic charges =   0.00000

 Dipole moment (field-independent basis, Debye):
    X=              1.8575    Y=             -0.2840    Z=             -4.0693  Tot=              4.4822
 Quadrupole moment (field-independent basis, Debye-Ang):
   XX=            -75.2931   YY=            -82.7215   ZZ=            -68.4756
   XY=              6.2108   XZ=              7.0641   YZ=             -7.7307

 Normal termination of Gaussian 09 at Tue Dec 31 09:10:27 2019.
