 Gaussian 09, Revision A.02,
 Gaussian 09:  EM64L-G09RevA.02 11-Jun-2009

 ------------------------------------------------------------------
 #P MP2/6-311++G** SP SCF=(qc,maxcycle=800) Guess=Indo MaxDisk=50GB
 ------------------------------------------------------------------

 --------------------------------------------------------------------
 ModifiedRes Rotatable Bond SP Calculation on bme-nova.bme.utexas.edu
 --------------------------------------------------------------------
 Symbolic Z-matrix:
 Charge =  0 Multiplicity = 1

                         Standard orientation:
 ---------------------------------------------------------------------
 Center     Atomic      Atomic             Coordinates (Angstroms)
 Number     Number       Type             X           Y           Z
 ---------------------------------------------------------------------
      1          7           0        1.379479   -0.926977    0.987303
      2          1           0        0.867941   -0.381901    1.653134
      3          6           0        0.403756    0.028987   -0.130134
      4          1           0        0.103955   -0.449262   -1.326477
      5          6           0        1.451054    1.299559   -0.111855
      6          8           0        1.076919    2.335243    0.554151
      7          6           0       -1.023809    0.539552    0.044521
      8         16           0       -2.069078   -0.885569   -0.190169
      9          6           0       -3.524719   -0.056552   -0.078345
     10          7           0       -4.579246    0.471541    0.035949
     11          1           0       -1.022352    1.029803    1.002040
     12          1           0       -1.313539    1.290320   -0.746896
     13          6           0        2.135392   -1.732221    0.003702
     14          8           0        3.233521   -1.484868   -0.117954
     15          7           0        2.646527    1.294351   -0.705489
     16          1           0        0.948935   -2.882754   -0.104659
     17          1           0        2.938277    0.411506   -1.064548
     18          1           0        3.321156    2.000029   -0.451144
 ---------------------------------------------------------------------

 SCF Done:  E(RHF) =  -903.822267522     a.u. after   12 cycles
 E2 =    -0.1801242846D+01 EUMP2 =    -0.90562351036805D+03

 The electronic state is 1-A.
 Alpha  occ. eigenvalues --  -92.03383 -20.63673 -20.53473 -15.60884 -15.60838
 Alpha  occ. eigenvalues --  -15.60427 -11.46425 -11.39512 -11.36936 -11.31743
 Alpha  occ. eigenvalues --  -11.31731  -9.03685  -6.71949  -6.71761  -6.71592
 Alpha  occ. eigenvalues --   -1.52968  -1.36978  -1.23712  -1.23385  -1.20155
 Alpha  occ. eigenvalues --   -1.13842  -1.01484  -0.88393  -0.85873  -0.79951
 Alpha  occ. eigenvalues --   -0.76378  -0.74854  -0.72340  -0.69692  -0.67033
 Alpha  occ. eigenvalues --   -0.65762  -0.64738  -0.60007  -0.58649  -0.56640
 Alpha  occ. eigenvalues --   -0.56037  -0.52745  -0.51675  -0.48676  -0.47019
 Alpha  occ. eigenvalues --   -0.46217  -0.44099  -0.42619  -0.41060  -0.39353
 Alpha virt. eigenvalues --    0.01196   0.03765   0.04825   0.05161   0.06178
 Alpha virt. eigenvalues --    0.07088   0.07631   0.08258   0.08566   0.10150
 Alpha virt. eigenvalues --    0.10599   0.10954   0.11504   0.12420   0.12783

 Mulliken atomic charges:
              1
     1  N   -0.067501
     2  H    0.421686
     3  C    0.045624
     4  H    0.127133
     5  C   -0.137474
     6  O   -0.401539
     7  C   -0.738447
     8  S    0.254140
     9  C   -0.169835
    10  N   -0.188313
    11  H    0.228797
    12  H    0.279950
    13  C    0.133228
    14  O   -0.237356
    15  N   -0.349835
    16  H    0.188041
    17  H    0.265014
    18  H    0.346686
 Sum of Mulliken atomic charges =   0.00000

 Dipole moment (field-independent basis, Debye):
    X=              3.6236    Y=             -3.3978    Z=             -1.6498  Tot=              5.2342
 Quadrupole moment (field-independent basis, Debye-Ang):
   XX=            -94.7121   YY=            -79.4521   ZZ=            -72.0429
   XY=              5.9530   XZ=             -2.0211   YZ=             -3.1744

 Normal termination of Gaussian 09 at Mon Dec 30 09:47:23 2019.
