 Gaussian 09, Revision A.02,
 Gaussian 09:  EM64L-G09RevA.02 11-Jun-2009

 ------------------------------------------------------------------
 #P MP2/6-311++G** SP SCF=(qc,maxcycle=800) Guess=Indo MaxDisk=50GB
 ------------------------------------------------------------------

 --------------------------------------------------------------------
 ModifiedRes Rotatable Bond SP Calculation on bme-nova.bme.utexas.edu
 --------------------------------------------------------------------
 Symbolic Z-matrix:
 Charge =  0 Multiplicity = 1

                         Standard orientation:
 ---------------------------------------------------------------------
 Center     Atomic      Atomic             Coordinates (Angstroms)
 Number     Number       Type             X           Y           Z
 ---------------------------------------------------------------------
      1          7           0        1.361246    1.292462    0.341479
      2          1           0        2.189750    1.516637    0.887483
      3          6           0        0.978904   -0.134152    0.517768
      4          1           0        0.921561   -0.277393    1.605535
      5          6           0        2.038622   -1.140762   -0.041192
      6          8           0        1.700355   -2.276243   -0.380155
      7          6           0       -0.380734   -0.594426   -0.100669
      8         16           0       -1.849887    0.364367    0.487931
      9          6           0       -3.071860   -0.713342   -0.003837
     10          7           0       -3.915502   -1.461899   -0.372777
     11          1           0       -0.338628   -0.497660   -1.188086
     12          1           0       -0.548099   -1.634599    0.192903
     13          6           0        0.734002    2.382223   -0.196868
     14          8           0       -0.316880    2.379189   -0.830667
     15          7           0        3.349315   -0.771553   -0.020503
     16          1           0        1.299532    3.314425   -0.028298
     17          1           0        3.647032    0.189848    0.064977
     18          1           0        4.000219   -1.475030   -0.343429
 ---------------------------------------------------------------------

 SCF Done:  E(RHF) =  -904.132287266     a.u. after   11 cycles
 E2 =    -0.1758626031D+01 EUMP2 =    -0.90589091329708D+03

 The electronic state is 1-A.
 Alpha  occ. eigenvalues --  -92.00622 -20.55859 -20.55787 -15.64223 -15.62616
 Alpha  occ. eigenvalues --  -15.58222 -11.40181 -11.39444 -11.35087 -11.30501
 Alpha  occ. eigenvalues --  -11.29898  -9.00767  -6.69013  -6.68828  -6.68672
 Alpha  occ. eigenvalues --   -1.41745  -1.40965  -1.28225  -1.24488  -1.20915
 Alpha  occ. eigenvalues --   -1.10951  -1.03209  -0.91785  -0.86496  -0.80357
 Alpha  occ. eigenvalues --   -0.79246  -0.76415  -0.71126  -0.69861  -0.67122
 Alpha  occ. eigenvalues --   -0.64810  -0.62621  -0.61193  -0.59697  -0.58453
 Alpha  occ. eigenvalues --   -0.56417  -0.55220  -0.51254  -0.50126  -0.48264
 Alpha  occ. eigenvalues --   -0.46324  -0.44983  -0.43816  -0.42800  -0.36620
 Alpha virt. eigenvalues --    0.00999   0.03738   0.04054   0.05852   0.06935
 Alpha virt. eigenvalues --    0.07808   0.08262   0.08849   0.10233   0.10851
 Alpha virt. eigenvalues --    0.11488   0.11916   0.12774   0.13197   0.13355

 Mulliken atomic charges:
              1
     1  N   -0.222768
     2  H    0.309354
     3  C   -0.046142
     4  H    0.270639
     5  C    0.106280
     6  O   -0.369226
     7  C   -0.376616
     8  S    0.213266
     9  C   -0.242285
    10  N   -0.191428
    11  H    0.297730
    12  H    0.221783
    13  C    0.145860
    14  O   -0.359247
    15  N   -0.506432
    16  H    0.136966
    17  H    0.260183
    18  H    0.352083
 Sum of Mulliken atomic charges =   0.00000

 Dipole moment (field-independent basis, Debye):
    X=              9.6430    Y=              3.8865    Z=              3.2262  Tot=             10.8858
 Quadrupole moment (field-independent basis, Debye-Ang):
   XX=            -73.5942   YY=            -82.3712   ZZ=            -73.2561
   XY=              2.7166   XZ=             -1.4051   YZ=              2.7182

 Normal termination of Gaussian 09 at Mon Dec 30 09:58:54 2019.
