 Gaussian 09, Revision A.02,
 Gaussian 09:  EM64L-G09RevA.02 11-Jun-2009

 ---------------------------------------------
 #P opt=(,maxcycle=400) HF/6-31G* MaxDisk=50GB
 ---------------------------------------------

 ------------------------------------------------------------------
 ModifiedRes Rotatable Bond Optimization on bme-nova.bme.utexas.edu
 ------------------------------------------------------------------
 Symbolic Z-matrix:
 Charge =  0 Multiplicity = 1

 SCF Done:  E(RHF) =  -903.992163360     A.U. after   16 cycles
 SCF Done:  E(RHF) =  -904.007758101     A.U. after   15 cycles
 SCF Done:  E(RHF) =  -904.010367341     A.U. after   14 cycles
 SCF Done:  E(RHF) =  -904.012141840     A.U. after   16 cycles
 SCF Done:  E(RHF) =  -904.012549793     A.U. after   14 cycles
 SCF Done:  E(RHF) =  -904.013148058     A.U. after   14 cycles
 SCF Done:  E(RHF) =  -904.013263527     A.U. after   14 cycles
 SCF Done:  E(RHF) =  -904.013524836     A.U. after   13 cycles
 SCF Done:  E(RHF) =  -904.013532492     A.U. after   13 cycles
 SCF Done:  E(RHF) =  -904.013571646     A.U. after   12 cycles
 SCF Done:  E(RHF) =  -904.013592906     A.U. after   12 cycles
 SCF Done:  E(RHF) =  -904.013621363     A.U. after   11 cycles
 SCF Done:  E(RHF) =  -904.013632257     A.U. after   11 cycles
 SCF Done:  E(RHF) =  -904.013636140     A.U. after   11 cycles
 SCF Done:  E(RHF) =  -904.013637583     A.U. after   10 cycles
 SCF Done:  E(RHF) =  -904.013638281     A.U. after   10 cycles
 SCF Done:  E(RHF) =  -904.013638356     A.U. after    9 cycles
 Optimization completed.
    -- Stationary point found.

                         Standard orientation:
 ---------------------------------------------------------------------
 Center     Atomic      Atomic             Coordinates (Angstroms)
 Number     Number       Type             X           Y           Z
 ---------------------------------------------------------------------
      1          7           0        0.683646    1.118613   -0.289299
      2          1           0       -0.058265    1.228218   -0.945117
      3          6           0        0.655217   -0.023448    0.603160
      4          1           0        1.235396    0.248700    1.476723
      5          6           0        1.300925   -1.271079   -0.015973
      6          8           0        0.654319   -2.265569   -0.210536
      7          6           0       -0.760372   -0.333401    1.076950
      8         16           0       -1.913108   -0.776761   -0.288220
      9          6           0       -3.012512    0.528046   -0.150849
     10          7           0       -3.747109    1.394792   -0.090777
     11          1           0       -0.738610   -1.179792    1.744569
     12          1           0       -1.171061    0.517645    1.598029
     13          6           0        1.736525    1.953360   -0.365533
     14          8           0        2.750834    1.827529    0.262708
     15          7           0        2.607229   -1.158178   -0.293249
     16          1           0        1.583287    2.774316   -1.062638
     17          1           0        3.118719   -0.327188   -0.089443
     18          1           0        3.073993   -1.936881   -0.701227
 ---------------------------------------------------------------------

 The electronic state is 1-A.
 Alpha  occ. eigenvalues --  -92.00887 -20.56492 -20.55082 -15.62678 -15.59760
 Alpha  occ. eigenvalues --  -15.58732 -11.38089 -11.37288 -11.31852 -11.30459
 Alpha  occ. eigenvalues --  -11.29876  -9.01707  -6.69987  -6.69798  -6.69607
 Alpha  occ. eigenvalues --   -1.42943  -1.41664  -1.28166  -1.24221  -1.23245
 Alpha  occ. eigenvalues --   -1.11854  -1.03075  -0.91571  -0.86699  -0.81413
 Alpha  occ. eigenvalues --   -0.77455  -0.75567  -0.71204  -0.69783  -0.66923
 Alpha  occ. eigenvalues --   -0.64078  -0.63060  -0.60508  -0.59497  -0.58658
 Alpha  occ. eigenvalues --   -0.57501  -0.55686  -0.52797  -0.52568  -0.47580
 Alpha  occ. eigenvalues --   -0.46024  -0.45694  -0.42897  -0.41552  -0.38586
 Alpha virt. eigenvalues --    0.13441   0.15898   0.18658   0.19699   0.20244
 Alpha virt. eigenvalues --    0.22228   0.23091   0.23824   0.24876   0.27934
 Alpha virt. eigenvalues --    0.28427   0.30353   0.32399   0.34269   0.36976

 Mulliken atomic charges:
              1
     1  N   -0.765651
     2  H    0.419869
     3  C   -0.081412
     4  H    0.251381
     5  C    0.780340
     6  O   -0.607496
     7  C   -0.501443
     8  S    0.307884
     9  C    0.066424
    10  N   -0.391704
    11  H    0.251963
    12  H    0.248116
    13  C    0.519767
    14  O   -0.587856
    15  N   -0.938490
    16  H    0.183898
    17  H    0.442396
    18  H    0.402014
 Sum of Mulliken atomic charges =   0.00000

 Dipole moment (field-independent basis, Debye):
    X=              3.1438    Y=              0.2661    Z=             -0.0483  Tot=              3.1554
 Quadrupole moment (field-independent basis, Debye-Ang):
   XX=            -86.9969   YY=            -79.3892   ZZ=            -65.8428
   XY=              0.1859   XZ=             -4.6247   YZ=             -4.7027

 Normal termination of Gaussian 09 at Tue Dec 31 08:55:33 2019.
