 Gaussian 09, Revision A.02,
 Gaussian 09:  EM64L-G09RevA.02 11-Jun-2009

 ------------------------------------------------------------------
 #P MP2/6-311++G** SP SCF=(qc,maxcycle=800) Guess=Indo MaxDisk=50GB
 ------------------------------------------------------------------

 --------------------------------------------------------------------
 ModifiedRes Rotatable Bond SP Calculation on bme-nova.bme.utexas.edu
 --------------------------------------------------------------------
 Symbolic Z-matrix:
 Charge =  0 Multiplicity = 1

                         Standard orientation:
 ---------------------------------------------------------------------
 Center     Atomic      Atomic             Coordinates (Angstroms)
 Number     Number       Type             X           Y           Z
 ---------------------------------------------------------------------
      1          7           0        1.212053   -0.864453    0.930696
      2          1           0        0.960698   -0.821727    1.913952
      3          6           0        0.595416    0.079584   -0.024892
      4          1           0        0.631190   -0.402005   -1.011438
      5          6           0        1.412927    1.394640   -0.071115
      6          8           0        0.993454    2.413005    0.483559
      7          6           0       -0.877308    0.377000    0.356287
      8         16           0       -1.996770   -0.788258   -0.524741
      9          6           0       -3.489611   -0.092493   -0.103623
     10          7           0       -4.522018    0.386603    0.227623
     11          1           0       -1.033867    0.286200    1.432394
     12          1           0       -1.132604    1.398049    0.064018
     13          6           0        2.231224   -1.699571    0.570113
     14          8           0        2.717438   -1.721009   -0.566155
     15          7           0        2.590002    1.332671   -0.749221
     16          1           0        2.583886   -2.358086    1.379630
     17          1           0        2.915615    0.455814   -1.146500
     18          1           0        3.140114    2.179211   -0.799722
 ---------------------------------------------------------------------

 SCF Done:  E(RHF) =  -904.158642196     a.u. after   11 cycles
 E2 =    -0.1755518272D+01 EUMP2 =    -0.90591416046774D+03

 The electronic state is 1-A.
 Alpha  occ. eigenvalues --  -92.02791 -20.56605 -20.54814 -15.63993 -15.60595
 Alpha  occ. eigenvalues --  -15.60070 -11.39790 -11.38723 -11.33965 -11.31567
 Alpha  occ. eigenvalues --  -11.31387  -9.02938  -6.71196  -6.71012  -6.70856
 Alpha  occ. eigenvalues --   -1.41736  -1.40281  -1.27861  -1.23107  -1.22736
 Alpha  occ. eigenvalues --   -1.12270  -1.03558  -0.91768  -0.87169  -0.81765
 Alpha  occ. eigenvalues --   -0.76826  -0.75739  -0.71958  -0.70087  -0.67274
 Alpha  occ. eigenvalues --   -0.64470  -0.63340  -0.60766  -0.59288  -0.58637
 Alpha  occ. eigenvalues --   -0.57183  -0.56488  -0.53310  -0.51852  -0.47770
 Alpha  occ. eigenvalues --   -0.47190  -0.45718  -0.43341  -0.42568  -0.39085
 Alpha virt. eigenvalues --    0.02504   0.04177   0.05101   0.05671   0.07478
 Alpha virt. eigenvalues --    0.07689   0.08251   0.08545   0.09559   0.10462
 Alpha virt. eigenvalues --    0.10736   0.11702   0.12394   0.12849   0.13274

 Mulliken atomic charges:
              1
     1  N   -0.104890
     2  H    0.330917
     3  C   -0.093614
     4  H    0.274118
     5  C    0.017623
     6  O   -0.416000
     7  C   -0.517203
     8  S    0.168762
     9  C   -0.104663
    10  N   -0.200819
    11  H    0.172513
    12  H    0.268320
    13  C    0.290653
    14  O   -0.451531
    15  N   -0.476475
    16  H    0.159215
    17  H    0.314507
    18  H    0.368567
 Sum of Mulliken atomic charges =   0.00000

 Dipole moment (field-independent basis, Debye):
    X=              4.5679    Y=             -2.2284    Z=              1.4576  Tot=              5.2873
 Quadrupole moment (field-independent basis, Debye-Ang):
   XX=            -93.0016   YY=            -80.8482   ZZ=            -67.2684
   XY=              6.5043   XZ=              5.1266   YZ=            -10.1497

 Normal termination of Gaussian 09 at Tue Dec 31 09:03:31 2019.
