 Gaussian 09, Revision A.02,
 Gaussian 09:  EM64L-G09RevA.02 11-Jun-2009

 ---------------------------------------------
 #P opt=(,maxcycle=400) HF/6-31G* MaxDisk=50GB
 ---------------------------------------------

 ------------------------------------------------------------------
 ModifiedRes Rotatable Bond Optimization on bme-nova.bme.utexas.edu
 ------------------------------------------------------------------
 Symbolic Z-matrix:
 Charge =  0 Multiplicity = 1

 SCF Done:  E(RHF) =  -903.994551418     A.U. after   16 cycles
 SCF Done:  E(RHF) =  -904.008603531     A.U. after   17 cycles
 SCF Done:  E(RHF) =  -904.010102322     A.U. after   17 cycles
 SCF Done:  E(RHF) =  -904.010363435     A.U. after   15 cycles
 SCF Done:  E(RHF) =  -904.010863966     A.U. after   13 cycles
 SCF Done:  E(RHF) =  -904.010937439     A.U. after   13 cycles
 SCF Done:  E(RHF) =  -904.011276464     A.U. after   13 cycles
 SCF Done:  E(RHF) =  -904.011357822     A.U. after   13 cycles
 SCF Done:  E(RHF) =  -904.011465901     A.U. after   12 cycles
 SCF Done:  E(RHF) =  -904.011477984     A.U. after   11 cycles
 SCF Done:  E(RHF) =  -904.011481140     A.U. after   11 cycles
 SCF Done:  E(RHF) =  -904.011481110     A.U. after   11 cycles
 SCF Done:  E(RHF) =  -904.011481513     A.U. after   10 cycles
 Optimization completed.
    -- Stationary point found.

                         Standard orientation:
 ---------------------------------------------------------------------
 Center     Atomic      Atomic             Coordinates (Angstroms)
 Number     Number       Type             X           Y           Z
 ---------------------------------------------------------------------
      1          7           0        0.972561   -0.886494    0.757685
      2          1           0        0.596736   -0.860290    1.680128
      3          6           0        0.605188    0.165535   -0.176069
      4          1           0        0.716547   -0.245197   -1.170196
      5          6           0        1.544348    1.374282   -0.029483
      6          8           0        1.191174    2.377796    0.522943
      7          6           0       -0.834666    0.613946    0.044185
      8         16           0       -1.956431   -0.821334   -0.177451
      9          6           0       -3.448543    0.002042   -0.102023
     10          7           0       -4.455983    0.527193   -0.053138
     11          1           0       -0.966692    1.028341    1.031461
     12          1           0       -1.092562    1.372243   -0.678144
     13          6           0        1.915477   -1.808704    0.474575
     14          8           0        2.538606   -1.849030   -0.547818
     15          7           0        2.763259    1.195789   -0.566794
     16          1           0        2.059821   -2.533148    1.273219
     17          1           0        3.054818    0.305732   -0.908352
     18          1           0        3.446303    1.905528   -0.421294
 ---------------------------------------------------------------------

 The electronic state is 1-A.
 Alpha  occ. eigenvalues --  -92.01090 -20.56943 -20.54873 -15.63316 -15.59693
 Alpha  occ. eigenvalues --  -15.58907 -11.38514 -11.37293 -11.32195 -11.30401
 Alpha  occ. eigenvalues --  -11.30072  -9.01998  -6.70307  -6.70117  -6.69913
 Alpha  occ. eigenvalues --   -1.43377  -1.41614  -1.28586  -1.24298  -1.23198
 Alpha  occ. eigenvalues --   -1.12244  -1.03303  -0.91356  -0.87051  -0.81772
 Alpha  occ. eigenvalues --   -0.76977  -0.75842  -0.71457  -0.69982  -0.67174
 Alpha  occ. eigenvalues --   -0.64517  -0.62831  -0.62084  -0.58995  -0.58407
 Alpha  occ. eigenvalues --   -0.57099  -0.56108  -0.53405  -0.52338  -0.47402
 Alpha  occ. eigenvalues --   -0.46508  -0.46142  -0.42869  -0.41764  -0.38696
 Alpha virt. eigenvalues --    0.12893   0.15867   0.17635   0.19445   0.20874
 Alpha virt. eigenvalues --    0.21182   0.22430   0.23473   0.24297   0.27397
 Alpha virt. eigenvalues --    0.28397   0.29669   0.32293   0.34511   0.37790

 Mulliken atomic charges:
              1
     1  N   -0.768348
     2  H    0.406880
     3  C   -0.100390
     4  H    0.253920
     5  C    0.775464
     6  O   -0.596778
     7  C   -0.492755
     8  S    0.286001
     9  C    0.084630
    10  N   -0.376529
    11  H    0.246042
    12  H    0.252407
    13  C    0.521811
    14  O   -0.579164
    15  N   -0.934302
    16  H    0.182734
    17  H    0.438958
    18  H    0.399419
 Sum of Mulliken atomic charges =   0.00000

 Dipole moment (field-independent basis, Debye):
    X=              4.1295    Y=             -2.0491    Z=              1.5074  Tot=              4.8501
 Quadrupole moment (field-independent basis, Debye-Ang):
   XX=            -89.2606   YY=            -79.2461   ZZ=            -67.5838
   XY=              6.4371   XZ=              2.5779   YZ=             -8.6413

 Normal termination of Gaussian 09 at Tue Dec 31 08:47:41 2019.
