 Gaussian 09, Revision A.02,
 Gaussian 09:  EM64L-G09RevA.02 11-Jun-2009

 ---------------------------------------------
 #P opt=(,maxcycle=400) HF/6-31G* MaxDisk=50GB
 ---------------------------------------------

 ------------------------------------------------------------------
 ModifiedRes Rotatable Bond Optimization on bme-nova.bme.utexas.edu
 ------------------------------------------------------------------
 Symbolic Z-matrix:
 Charge =  0 Multiplicity = 1

 SCF Done:  E(RHF) =  -903.990713821     A.U. after   16 cycles
 SCF Done:  E(RHF) =  -904.004415549     A.U. after   14 cycles
 SCF Done:  E(RHF) =  -904.005497664     A.U. after   15 cycles
 SCF Done:  E(RHF) =  -904.007095267     A.U. after   15 cycles
 SCF Done:  E(RHF) =  -904.008914075     A.U. after   15 cycles
 SCF Done:  E(RHF) =  -904.010381435     A.U. after   14 cycles
 SCF Done:  E(RHF) =  -904.011006496     A.U. after   15 cycles
 SCF Done:  E(RHF) =  -904.011106929     A.U. after   14 cycles
 SCF Done:  E(RHF) =  -904.011161560     A.U. after   13 cycles
 SCF Done:  E(RHF) =  -904.011467323     A.U. after   14 cycles
 SCF Done:  E(RHF) =  -904.011472604     A.U. after   12 cycles
 SCF Done:  E(RHF) =  -904.011476967     A.U. after   12 cycles
 SCF Done:  E(RHF) =  -904.011479875     A.U. after   10 cycles
 SCF Done:  E(RHF) =  -904.011481135     A.U. after   11 cycles
 SCF Done:  E(RHF) =  -904.011481369     A.U. after   10 cycles
 SCF Done:  E(RHF) =  -904.011481430     A.U. after    9 cycles
 SCF Done:  E(RHF) =  -904.011481482     A.U. after    8 cycles
 Optimization completed.
    -- Stationary point found.

                         Standard orientation:
 ---------------------------------------------------------------------
 Center     Atomic      Atomic             Coordinates (Angstroms)
 Number     Number       Type             X           Y           Z
 ---------------------------------------------------------------------
      1          7           0        0.972658   -0.886537    0.757529
      2          1           0        0.597920   -0.859717    1.680403
      3          6           0        0.605145    0.165554   -0.175995
      4          1           0        0.716532   -0.245055   -1.170162
      5          6           0        1.544187    1.374406   -0.029509
      6          8           0        1.190909    2.378011    0.522684
      7          6           0       -0.834717    0.613872    0.044362
      8         16           0       -1.956363   -0.821509   -0.176515
      9          6           0       -3.448428    0.001997   -0.102297
     10          7           0       -4.455848    0.527244   -0.054206
     11          1           0       -0.966660    1.028669    1.031500
     12          1           0       -1.092784    1.371907   -0.678189
     13          6           0        1.915599   -1.808663    0.474195
     14          8           0        2.538419   -1.849056   -0.548382
     15          7           0        2.763256    1.195735   -0.566340
     16          1           0        2.060264   -2.533045    1.272803
     17          1           0        3.054624    0.305910   -0.908627
     18          1           0        3.446120    1.905735   -0.421335
 ---------------------------------------------------------------------

 The electronic state is 1-A.
 Alpha  occ. eigenvalues --  -92.01088 -20.56944 -20.54873 -15.63317 -15.59694
 Alpha  occ. eigenvalues --  -15.58905 -11.38514 -11.37293 -11.32193 -11.30398
 Alpha  occ. eigenvalues --  -11.30070  -9.01996  -6.70305  -6.70115  -6.69911
 Alpha  occ. eigenvalues --   -1.43378  -1.41614  -1.28588  -1.24298  -1.23199
 Alpha  occ. eigenvalues --   -1.12244  -1.03303  -0.91356  -0.87052  -0.81775
 Alpha  occ. eigenvalues --   -0.76979  -0.75843  -0.71455  -0.69985  -0.67174
 Alpha  occ. eigenvalues --   -0.64517  -0.62829  -0.62084  -0.58993  -0.58410
 Alpha  occ. eigenvalues --   -0.57098  -0.56107  -0.53404  -0.52337  -0.47403
 Alpha  occ. eigenvalues --   -0.46508  -0.46142  -0.42868  -0.41764  -0.38694
 Alpha virt. eigenvalues --    0.12896   0.15865   0.17638   0.19446   0.20877
 Alpha virt. eigenvalues --    0.21184   0.22430   0.23474   0.24296   0.27396
 Alpha virt. eigenvalues --    0.28396   0.29671   0.32293   0.34514   0.37793

 Mulliken atomic charges:
              1
     1  N   -0.768318
     2  H    0.406865
     3  C   -0.100418
     4  H    0.253919
     5  C    0.775475
     6  O   -0.596798
     7  C   -0.492755
     8  S    0.286050
     9  C    0.084626
    10  N   -0.376539
    11  H    0.246041
    12  H    0.252386
    13  C    0.521810
    14  O   -0.579143
    15  N   -0.934357
    16  H    0.182740
    17  H    0.438970
    18  H    0.399446
 Sum of Mulliken atomic charges =   0.00000

 Dipole moment (field-independent basis, Debye):
    X=              4.1324    Y=             -2.0477    Z=              1.5081  Tot=              4.8522
 Quadrupole moment (field-independent basis, Debye-Ang):
   XX=            -89.2573   YY=            -79.2487   ZZ=            -67.5795
   XY=              6.4385   XZ=              2.5705   YZ=             -8.6414

 Normal termination of Gaussian 09 at Tue Dec 31 08:58:23 2019.
