 Gaussian 09, Revision A.02,
 Gaussian 09:  EM64L-G09RevA.02 11-Jun-2009

 ---------------------------------------------
 #P opt=(,maxcycle=400) HF/6-31G* MaxDisk=50GB
 ---------------------------------------------

 ------------------------------------------------------------------
 ModifiedRes Rotatable Bond Optimization on bme-nova.bme.utexas.edu
 ------------------------------------------------------------------
 Symbolic Z-matrix:
 Charge =  0 Multiplicity = 1

 SCF Done:  E(RHF) =  -903.979870775     A.U. after   16 cycles
 SCF Done:  E(RHF) =  -903.996602775     A.U. after   14 cycles
 SCF Done:  E(RHF) =  -903.999835407     A.U. after   15 cycles
 SCF Done:  E(RHF) =  -904.001091806     A.U. after   15 cycles
 SCF Done:  E(RHF) =  -904.004924240     A.U. after   14 cycles
 SCF Done:  E(RHF) =  -904.008775167     A.U. after   15 cycles
 SCF Done:  E(RHF) =  -904.009745904     A.U. after   15 cycles
 SCF Done:  E(RHF) =  -904.010681046     A.U. after   14 cycles
 SCF Done:  E(RHF) =  -904.010943444     A.U. after   13 cycles
 SCF Done:  E(RHF) =  -904.011218299     A.U. after   14 cycles
 SCF Done:  E(RHF) =  -904.011450370     A.U. after   14 cycles
 SCF Done:  E(RHF) =  -904.012012377     A.U. after   15 cycles
 SCF Done:  E(RHF) =  -904.012175566     A.U. after   13 cycles
 SCF Done:  E(RHF) =  -904.012273066     A.U. after   13 cycles
 SCF Done:  E(RHF) =  -904.012311437     A.U. after   13 cycles
 SCF Done:  E(RHF) =  -904.012347478     A.U. after   12 cycles
 SCF Done:  E(RHF) =  -904.012368855     A.U. after   17 cycles
 SCF Done:  E(RHF) =  -904.012375445     A.U. after   17 cycles
 SCF Done:  E(RHF) =  -904.012376210     A.U. after   11 cycles
 SCF Done:  E(RHF) =  -904.012376725     A.U. after   10 cycles
 Optimization completed.
    -- Stationary point found.

                         Standard orientation:
 ---------------------------------------------------------------------
 Center     Atomic      Atomic             Coordinates (Angstroms)
 Number     Number       Type             X           Y           Z
 ---------------------------------------------------------------------
      1          7           0        1.511829   -0.653920    1.052980
      2          1           0        1.622470   -0.356277    1.997244
      3          6           0        0.451025   -0.060720    0.253578
      4          1           0        0.247086   -0.749075   -0.553788
      5          6           0        0.921539    1.287661   -0.311944
      6          8           0        0.625279    2.321926    0.221220
      7          6           0       -0.789114    0.117975    1.121277
      8         16           0       -2.262097    0.640660    0.176572
      9          6           0       -2.729489   -0.877664   -0.452739
     10          7           0       -3.051528   -1.880716   -0.881685
     11          1           0       -1.021848   -0.797495    1.644887
     12          1           0       -0.633743    0.912089    1.837342
     13          6           0        2.486512   -1.408541    0.502632
     14          8           0        2.563148   -1.674766   -0.662071
     15          7           0        1.692544    1.196702   -1.407395
     16          1           0        3.210591   -1.769365    1.230656
     17          1           0        2.034699    0.315976   -1.724823
     18          1           0        2.114110    2.029572   -1.753982
 ---------------------------------------------------------------------

 The electronic state is 1-A.
 Alpha  occ. eigenvalues --  -92.00863 -20.56459 -20.54496 -15.62794 -15.59435
 Alpha  occ. eigenvalues --  -15.58746 -11.38037 -11.36830 -11.31374 -11.30271
 Alpha  occ. eigenvalues --  -11.29858  -9.01734  -6.70029  -6.69842  -6.69641
 Alpha  occ. eigenvalues --   -1.42890  -1.41176  -1.27994  -1.24170  -1.22913
 Alpha  occ. eigenvalues --   -1.12155  -1.02500  -0.91625  -0.86256  -0.81384
 Alpha  occ. eigenvalues --   -0.77044  -0.75258  -0.70997  -0.69361  -0.67132
 Alpha  occ. eigenvalues --   -0.63758  -0.62944  -0.61650  -0.58416  -0.57546
 Alpha  occ. eigenvalues --   -0.56718  -0.55814  -0.53263  -0.52322  -0.47143
 Alpha  occ. eigenvalues --   -0.46744  -0.45117  -0.42620  -0.41422  -0.38526
 Alpha virt. eigenvalues --    0.13038   0.16238   0.18970   0.19920   0.19983
 Alpha virt. eigenvalues --    0.21905   0.23449   0.23757   0.24125   0.27340
 Alpha virt. eigenvalues --    0.29126   0.30642   0.31363   0.35214   0.37767

 Mulliken atomic charges:
              1
     1  N   -0.768035
     2  H    0.399299
     3  C   -0.066837
     4  H    0.257283
     5  C    0.775388
     6  O   -0.611137
     7  C   -0.522188
     8  S    0.311081
     9  C    0.084195
    10  N   -0.382766
    11  H    0.242469
    12  H    0.251635
    13  C    0.520970
    14  O   -0.575320
    15  N   -0.926949
    16  H    0.177529
    17  H    0.434799
    18  H    0.398582
 Sum of Mulliken atomic charges =   0.00000

 Dipole moment (field-independent basis, Debye):
    X=              3.6626    Y=              0.8555    Z=              3.5237  Tot=              5.1539
 Quadrupole moment (field-independent basis, Debye-Ang):
   XX=            -74.8415   YY=            -86.0870   ZZ=            -63.7237
   XY=             -3.9792   XZ=              0.4424   YZ=            -10.1370

 Normal termination of Gaussian 09 at Tue Dec 31 08:59:06 2019.
