 Gaussian 09, Revision A.02,
 Gaussian 09:  EM64L-G09RevA.02 11-Jun-2009

 ---------------------------------------------
 #P opt=(,maxcycle=400) HF/6-31G* MaxDisk=50GB
 ---------------------------------------------

 ------------------------------------------------------------------
 ModifiedRes Rotatable Bond Optimization on bme-nova.bme.utexas.edu
 ------------------------------------------------------------------
 Symbolic Z-matrix:
 Charge =  0 Multiplicity = 1

 SCF Done:  E(RHF) =  -903.988478346     A.U. after   16 cycles
 SCF Done:  E(RHF) =  -904.004414488     A.U. after   14 cycles
 SCF Done:  E(RHF) =  -904.006533473     A.U. after   13 cycles
 SCF Done:  E(RHF) =  -904.006852184     A.U. after   15 cycles
 SCF Done:  E(RHF) =  -904.008409181     A.U. after   13 cycles
 SCF Done:  E(RHF) =  -904.008669716     A.U. after   17 cycles
 SCF Done:  E(RHF) =  -904.008558646     A.U. after   14 cycles
 SCF Done:  E(RHF) =  -904.008840022     A.U. after   13 cycles
 SCF Done:  E(RHF) =  -904.009075088     A.U. after   14 cycles
 SCF Done:  E(RHF) =  -903.971541890     A.U. after   17 cycles
 SCF Done:  E(RHF) =  -904.011018459     A.U. after   14 cycles
 SCF Done:  E(RHF) =  -904.011338764     A.U. after   14 cycles
 SCF Done:  E(RHF) =  -904.011353911     A.U. after   14 cycles
 SCF Done:  E(RHF) =  -904.011461771     A.U. after   13 cycles
 SCF Done:  E(RHF) =  -904.011474689     A.U. after   12 cycles
 SCF Done:  E(RHF) =  -904.011478464     A.U. after   11 cycles
 SCF Done:  E(RHF) =  -904.011480087     A.U. after   10 cycles
 SCF Done:  E(RHF) =  -904.011481191     A.U. after   10 cycles
 SCF Done:  E(RHF) =  -904.011481470     A.U. after    9 cycles
 SCF Done:  E(RHF) =  -904.011481518     A.U. after    8 cycles
 Optimization completed.
    -- Stationary point found.

                         Standard orientation:
 ---------------------------------------------------------------------
 Center     Atomic      Atomic             Coordinates (Angstroms)
 Number     Number       Type             X           Y           Z
 ---------------------------------------------------------------------
      1          7           0        0.972550   -0.886426    0.757636
      2          1           0        0.596689   -0.860238    1.680065
      3          6           0        0.605148    0.165587   -0.176085
      4          1           0        0.716577   -0.245127   -1.170210
      5          6           0        1.544332    1.374275   -0.029482
      6          8           0        1.191394    2.377678    0.523275
      7          6           0       -0.834675    0.613968    0.044233
      8         16           0       -1.956408   -0.821370   -0.177157
      9          6           0       -3.448455    0.002124   -0.102144
     10          7           0       -4.455912    0.527267   -0.053545
     11          1           0       -0.966685    1.028471    1.031475
     12          1           0       -1.092673    1.372167   -0.678159
     13          6           0        1.915350   -1.808711    0.474501
     14          8           0        2.538575   -1.849047   -0.547838
     15          7           0        2.763117    1.195769   -0.567106
     16          1           0        2.059574   -2.533203    1.273099
     17          1           0        3.054530    0.305728   -0.908834
     18          1           0        3.446292    1.905352   -0.421451
 ---------------------------------------------------------------------

 The electronic state is 1-A.
 Alpha  occ. eigenvalues --  -92.01090 -20.56943 -20.54873 -15.63317 -15.59693
 Alpha  occ. eigenvalues --  -15.58907 -11.38514 -11.37293 -11.32194 -11.30401
 Alpha  occ. eigenvalues --  -11.30072  -9.01999  -6.70307  -6.70117  -6.69913
 Alpha  occ. eigenvalues --   -1.43377  -1.41615  -1.28588  -1.24299  -1.23198
 Alpha  occ. eigenvalues --   -1.12245  -1.03305  -0.91357  -0.87052  -0.81772
 Alpha  occ. eigenvalues --   -0.76977  -0.75842  -0.71458  -0.69982  -0.67175
 Alpha  occ. eigenvalues --   -0.64517  -0.62831  -0.62085  -0.58995  -0.58407
 Alpha  occ. eigenvalues --   -0.57100  -0.56108  -0.53406  -0.52338  -0.47401
 Alpha  occ. eigenvalues --   -0.46508  -0.46143  -0.42869  -0.41764  -0.38697
 Alpha virt. eigenvalues --    0.12893   0.15867   0.17636   0.19444   0.20875
 Alpha virt. eigenvalues --    0.21182   0.22429   0.23472   0.24298   0.27396
 Alpha virt. eigenvalues --    0.28398   0.29670   0.32295   0.34511   0.37791

 Mulliken atomic charges:
              1
     1  N   -0.768343
     2  H    0.406887
     3  C   -0.100384
     4  H    0.253916
     5  C    0.775465
     6  O   -0.596769
     7  C   -0.492788
     8  S    0.286006
     9  C    0.084633
    10  N   -0.376527
    11  H    0.246059
    12  H    0.252402
    13  C    0.521818
    14  O   -0.579171
    15  N   -0.934298
    16  H    0.182728
    17  H    0.438955
    18  H    0.399412
 Sum of Mulliken atomic charges =   0.00000

 Dipole moment (field-independent basis, Debye):
    X=              4.1283    Y=             -2.0492    Z=              1.5071  Tot=              4.8490
 Quadrupole moment (field-independent basis, Debye-Ang):
   XX=            -89.2630   YY=            -79.2457   ZZ=            -67.5848
   XY=              6.4363   XZ=              2.5735   YZ=             -8.6417

 Normal termination of Gaussian 09 at Mon Dec 30 10:03:26 2019.
