 Gaussian 09, Revision A.02,
 Gaussian 09:  EM64L-G09RevA.02 11-Jun-2009

 ---------------------------------------------
 #P opt=(,maxcycle=400) HF/6-31G* MaxDisk=50GB
 ---------------------------------------------

 ------------------------------------------------------------------
 ModifiedRes Rotatable Bond Optimization on bme-nova.bme.utexas.edu
 ------------------------------------------------------------------
 Symbolic Z-matrix:
 Charge =  0 Multiplicity = 1

 SCF Done:  E(RHF) =  -903.984203300     A.U. after   16 cycles
 SCF Done:  E(RHF) =  -903.998493925     A.U. after   14 cycles
 SCF Done:  E(RHF) =  -903.999593514     A.U. after   14 cycles
 SCF Done:  E(RHF) =  -904.000536591     A.U. after   14 cycles
 SCF Done:  E(RHF) =  -904.001276206     A.U. after   14 cycles
 SCF Done:  E(RHF) =  -904.001531028     A.U. after   13 cycles
 SCF Done:  E(RHF) =  -904.001457325     A.U. after   16 cycles
 SCF Done:  E(RHF) =  -904.002042384     A.U. after   13 cycles
 SCF Done:  E(RHF) =  -904.002340492     A.U. after   15 cycles
 SCF Done:  E(RHF) =  -904.002580540     A.U. after   13 cycles
 SCF Done:  E(RHF) =  -904.002671042     A.U. after   14 cycles
 SCF Done:  E(RHF) =  -904.002684161     A.U. after   13 cycles
 SCF Done:  E(RHF) =  -904.002713643     A.U. after   13 cycles
 SCF Done:  E(RHF) =  -904.002721889     A.U. after   12 cycles
 SCF Done:  E(RHF) =  -904.002725091     A.U. after   11 cycles
 SCF Done:  E(RHF) =  -904.002726279     A.U. after   10 cycles
 SCF Done:  E(RHF) =  -904.002726890     A.U. after   11 cycles
 SCF Done:  E(RHF) =  -904.002727169     A.U. after   10 cycles
 SCF Done:  E(RHF) =  -904.002727365     A.U. after   10 cycles
 SCF Done:  E(RHF) =  -904.002727459     A.U. after    9 cycles
 Optimization completed.
    -- Stationary point found.

                         Standard orientation:
 ---------------------------------------------------------------------
 Center     Atomic      Atomic             Coordinates (Angstroms)
 Number     Number       Type             X           Y           Z
 ---------------------------------------------------------------------
      1          7           0        1.232078    0.889492   -0.277012
      2          1           0        1.660098    0.821158   -1.178619
      3          6           0        0.640641   -0.315649    0.240417
      4          1           0        0.498968   -0.197493    1.307808
      5          6           0        1.553151   -1.511093   -0.058781
      6          8           0        2.126744   -1.581270   -1.106945
      7          6           0       -0.718712   -0.601092   -0.411103
      8         16           0       -1.836843    0.832715   -0.156826
      9          6           0       -3.307177   -0.005869    0.061337
     10          7           0       -4.296342   -0.545221    0.216573
     11          1           0       -0.594303   -0.762756   -1.471868
     12          1           0       -1.176854   -1.476608    0.025573
     13          6           0        1.652165    1.926978    0.498326
     14          8           0        2.327326    2.825398    0.110264
     15          7           0        1.599417   -2.471098    0.885013
     16          1           0        1.286755    1.871331    1.524603
     17          1           0        1.226563   -2.345889    1.797194
     18          1           0        2.189220   -3.258060    0.724780
 ---------------------------------------------------------------------

 The electronic state is 1-A.
 Alpha  occ. eigenvalues --  -92.01661 -20.56431 -20.55030 -15.62407 -15.61325
 Alpha  occ. eigenvalues --  -15.59348 -11.38988 -11.36759 -11.33293 -11.31304
 Alpha  occ. eigenvalues --  -11.30564  -9.02538  -6.70834  -6.70649  -6.70446
 Alpha  occ. eigenvalues --   -1.43548  -1.41433  -1.27638  -1.25527  -1.24775
 Alpha  occ. eigenvalues --   -1.12402  -1.03388  -0.91519  -0.87516  -0.84167
 Alpha  occ. eigenvalues --   -0.78073  -0.73736  -0.71564  -0.68529  -0.68004
 Alpha  occ. eigenvalues --   -0.65763  -0.64287  -0.62754  -0.59495  -0.58428
 Alpha  occ. eigenvalues --   -0.57131  -0.56466  -0.53992  -0.52951  -0.47714
 Alpha  occ. eigenvalues --   -0.46160  -0.45025  -0.44622  -0.41528  -0.39106
 Alpha virt. eigenvalues --    0.11629   0.16276   0.17110   0.18901   0.20551
 Alpha virt. eigenvalues --    0.21010   0.22020   0.23146   0.23354   0.25721
 Alpha virt. eigenvalues --    0.27185   0.28735   0.31204   0.33366   0.37213

 Mulliken atomic charges:
              1
     1  N   -0.754917
     2  H    0.422871
     3  C   -0.085532
     4  H    0.210225
     5  C    0.766253
     6  O   -0.588345
     7  C   -0.500871
     8  S    0.310704
     9  C    0.079810
    10  N   -0.380640
    11  H    0.251565
    12  H    0.240312
    13  C    0.527886
    14  O   -0.540028
    15  N   -0.917293
    16  H    0.148451
    17  H    0.398619
    18  H    0.410927
 Sum of Mulliken atomic charges =   0.00000

 Dipole moment (field-independent basis, Debye):
    X=              1.4734    Y=             -4.0133    Z=              3.3649  Tot=              5.4406
 Quadrupole moment (field-independent basis, Debye-Ang):
   XX=           -100.6154   YY=            -76.3589   ZZ=            -66.6989
   XY=            -13.8398   XZ=              8.5493   YZ=             -5.8509

 Normal termination of Gaussian 09 at Mon Dec 30 09:42:35 2019.
