 Gaussian 09, Revision A.02,
 Gaussian 09:  EM64L-G09RevA.02 11-Jun-2009

 ------------------------------------------------------------------
 #P MP2/6-311++G** SP SCF=(qc,maxcycle=800) Guess=Indo MaxDisk=50GB
 ------------------------------------------------------------------

 --------------------------------------------------------------------
 ModifiedRes Rotatable Bond SP Calculation on bme-nova.bme.utexas.edu
 --------------------------------------------------------------------
 Symbolic Z-matrix:
 Charge =  0 Multiplicity = 1

                         Standard orientation:
 ---------------------------------------------------------------------
 Center     Atomic      Atomic             Coordinates (Angstroms)
 Number     Number       Type             X           Y           Z
 ---------------------------------------------------------------------
      1          7           0       -1.281928    1.259378   -0.536718
      2          1           0       -1.867618    1.533820   -1.321960
      3          6           0       -0.931682   -0.181892   -0.568234
      4          1           0       -0.850249   -0.434765   -1.634436
      5          6           0       -2.022122   -1.109935    0.048652
      6          8           0       -1.719486   -2.213996    0.504688
      7          6           0        0.403787   -0.581066    0.127815
      8         16           0        1.832127    0.357467   -0.577706
      9          6           0        3.106542   -0.604547    0.008811
     10          7           0        4.016890   -1.254950    0.403384
     11          1           0        0.348737   -0.376785    1.199375
     12          1           0        0.587897   -1.644855   -0.042992
     13          6           0       -0.756192    2.266581    0.227133
     14          8           0        0.026921    2.117746    1.164556
     15          7           0       -3.318506   -0.707188   -0.057065
     16          1           0       -1.131643    3.261857   -0.063182
     17          1           0       -3.570468    0.242291   -0.295760
     18          1           0       -4.007353   -1.346571    0.316024
 ---------------------------------------------------------------------

 SCF Done:  E(RHF) =  -904.142449225     a.u. after   12 cycles
 E2 =    -0.1758398513D+01 EUMP2 =    -0.90590084773728D+03

 The electronic state is 1-A.
 Alpha  occ. eigenvalues --  -92.01088 -20.55953 -20.55399 -15.64288 -15.62082
 Alpha  occ. eigenvalues --  -15.58594 -11.39570 -11.39479 -11.34694 -11.30276
 Alpha  occ. eigenvalues --  -11.30213  -9.01240  -6.69502  -6.69315  -6.69162
 Alpha  occ. eigenvalues --   -1.41365  -1.40809  -1.28188  -1.24039  -1.21252
 Alpha  occ. eigenvalues --   -1.11033  -1.03225  -0.91689  -0.86612  -0.80230
 Alpha  occ. eigenvalues --   -0.78907  -0.76858  -0.71133  -0.68981  -0.67055
 Alpha  occ. eigenvalues --   -0.64767  -0.62466  -0.61083  -0.59842  -0.58107
 Alpha  occ. eigenvalues --   -0.56325  -0.55367  -0.51888  -0.50465  -0.48146
 Alpha  occ. eigenvalues --   -0.46245  -0.44612  -0.44144  -0.42615  -0.37298
 Alpha virt. eigenvalues --    0.01064   0.03714   0.04012   0.05780   0.07079
 Alpha virt. eigenvalues --    0.07734   0.08303   0.08780   0.10297   0.10588
 Alpha virt. eigenvalues --    0.11400   0.12011   0.12764   0.12985   0.13791

 Mulliken atomic charges:
              1
     1  N   -0.273964
     2  H    0.367437
     3  C   -0.224627
     4  H    0.240987
     5  C    0.183465
     6  O   -0.381895
     7  C   -0.243269
     8  S    0.292206
     9  C   -0.364690
    10  N   -0.169953
    11  H    0.288007
    12  H    0.268891
    13  C    0.115102
    14  O   -0.355700
    15  N   -0.521596
    16  H    0.147755
    17  H    0.271938
    18  H    0.359904
 Sum of Mulliken atomic charges =   0.00000

 Dipole moment (field-independent basis, Debye):
    X=             -8.6944    Y=              4.0401    Z=             -4.5838  Tot=             10.6267
 Quadrupole moment (field-independent basis, Debye-Ang):
   XX=            -75.9457   YY=            -79.3101   ZZ=            -74.0278
   XY=             -2.3125   XZ=              0.4382   YZ=             -4.0040

 Normal termination of Gaussian 09 at Mon Dec 30 09:59:08 2019.
