 Gaussian 09, Revision A.02,
 Gaussian 09:  EM64L-G09RevA.02 11-Jun-2009

 ---------------------------------------------
 #P opt=(,maxcycle=400) HF/6-31G* MaxDisk=50GB
 ---------------------------------------------

 ------------------------------------------------------------------
 ModifiedRes Rotatable Bond Optimization on bme-nova.bme.utexas.edu
 ------------------------------------------------------------------
 Symbolic Z-matrix:
 Charge =  0 Multiplicity = 1

 SCF Done:  E(RHF) =  -903.949358097     A.U. after   16 cycles
 SCF Done:  E(RHF) =  -903.967501675     A.U. after   14 cycles
 SCF Done:  E(RHF) =  -903.972044854     A.U. after   15 cycles
 SCF Done:  E(RHF) =  -903.979849327     A.U. after   17 cycles
 SCF Done:  E(RHF) =  -903.984712997     A.U. after   17 cycles
 SCF Done:  E(RHF) =  -903.988481577     A.U. after   16 cycles
 SCF Done:  E(RHF) =  -903.993744807     A.U. after   17 cycles
 SCF Done:  E(RHF) =  -904.000845421     A.U. after   17 cycles
 SCF Done:  E(RHF) =  -904.004267515     A.U. after   17 cycles
 SCF Done:  E(RHF) =  -904.005141380     A.U. after   17 cycles
 SCF Done:  E(RHF) =  -904.006229470     A.U. after   14 cycles
 SCF Done:  E(RHF) =  -904.006285956     A.U. after   12 cycles
 SCF Done:  E(RHF) =  -904.006297668     A.U. after   12 cycles
 SCF Done:  E(RHF) =  -904.006300158     A.U. after   12 cycles
 SCF Done:  E(RHF) =  -904.006300969     A.U. after   11 cycles
 SCF Done:  E(RHF) =  -904.006301443     A.U. after   10 cycles
 SCF Done:  E(RHF) =  -904.006301894     A.U. after   10 cycles
 SCF Done:  E(RHF) =  -904.006302159     A.U. after   10 cycles
 SCF Done:  E(RHF) =  -904.006302270     A.U. after   10 cycles
 SCF Done:  E(RHF) =  -904.006302294     A.U. after    9 cycles
 Optimization completed.
    -- Stationary point found.

                         Standard orientation:
 ---------------------------------------------------------------------
 Center     Atomic      Atomic             Coordinates (Angstroms)
 Number     Number       Type             X           Y           Z
 ---------------------------------------------------------------------
      1          7           0        1.006884    1.119338   -0.123666
      2          1           0        1.756541    1.257697   -0.769735
      3          6           0        0.567072   -0.229153    0.087283
      4          1           0        0.083057   -0.296039    1.054136
      5          6           0        1.783594   -1.158756    0.039925
      6          8           0        2.649287   -0.976937   -0.767457
      7          6           0       -0.408382   -0.712562   -1.000249
      8         16           0       -2.020482    0.144862   -0.985766
      9          6           0       -2.624497   -0.496488    0.477496
     10          7           0       -3.003186   -0.918971    1.463598
     11          1           0        0.008118   -0.506612   -1.977277
     12          1           0       -0.587603   -1.776230   -0.923917
     13          6           0        0.617575    2.192834    0.607678
     14          8           0        1.045813    3.294695    0.464360
     15          7           0        1.764142   -2.198671    0.894924
     16          1           0       -0.140885    1.953290    1.353661
     17          1           0        1.114130   -2.263441    1.643845
     18          1           0        2.546488   -2.815648    0.899540
 ---------------------------------------------------------------------

 The electronic state is 1-A.
 Alpha  occ. eigenvalues --  -92.02147 -20.56174 -20.54008 -15.62048 -15.60538
 Alpha  occ. eigenvalues --  -15.60347 -11.38756 -11.35937 -11.32788 -11.31474
 Alpha  occ. eigenvalues --  -11.31461  -9.03035  -6.71334  -6.71143  -6.70940
 Alpha  occ. eigenvalues --   -1.43264  -1.40465  -1.27023  -1.25739  -1.25180
 Alpha  occ. eigenvalues --   -1.12699  -1.03318  -0.92005  -0.86835  -0.83790
 Alpha  occ. eigenvalues --   -0.77449  -0.73202  -0.71689  -0.68268  -0.66778
 Alpha  occ. eigenvalues --   -0.66534  -0.63747  -0.62142  -0.59748  -0.58240
 Alpha  occ. eigenvalues --   -0.57419  -0.56389  -0.54584  -0.53805  -0.48164
 Alpha  occ. eigenvalues --   -0.45835  -0.44752  -0.43720  -0.40973  -0.39621
 Alpha virt. eigenvalues --    0.11184   0.16807   0.17692   0.19190   0.19487
 Alpha virt. eigenvalues --    0.20215   0.22254   0.23283   0.23976   0.25654
 Alpha virt. eigenvalues --    0.27937   0.29149   0.31604   0.33140   0.36180

 Mulliken atomic charges:
              1
     1  N   -0.756425
     2  H    0.423460
     3  C   -0.069020
     4  H    0.219437
     5  C    0.761357
     6  O   -0.592835
     7  C   -0.511337
     8  S    0.309123
     9  C    0.085435
    10  N   -0.385863
    11  H    0.251752
    12  H    0.240318
    13  C    0.531331
    14  O   -0.553016
    15  N   -0.917050
    16  H    0.150463
    17  H    0.403400
    18  H    0.409471
 Sum of Mulliken atomic charges =   0.00000

 Dipole moment (field-independent basis, Debye):
    X=              0.2766    Y=             -4.8110    Z=              0.0831  Tot=              4.8197
 Quadrupole moment (field-independent basis, Debye-Ang):
   XX=            -85.7535   YY=            -81.4185   ZZ=            -69.4204
   XY=            -10.6162   XZ=             10.8668   YZ=             -4.3575

 Normal termination of Gaussian 09 at Mon Dec 30 09:43:02 2019.
