 Gaussian 09, Revision A.02,
 Gaussian 09:  EM64L-G09RevA.02 11-Jun-2009

 ------------------------------------------------------------------
 #P MP2/6-311++G** SP SCF=(qc,maxcycle=800) Guess=Indo MaxDisk=50GB
 ------------------------------------------------------------------

 --------------------------------------------------------------------
 ModifiedRes Rotatable Bond SP Calculation on bme-nova.bme.utexas.edu
 --------------------------------------------------------------------
 Symbolic Z-matrix:
 Charge =  0 Multiplicity = 1

                         Standard orientation:
 ---------------------------------------------------------------------
 Center     Atomic      Atomic             Coordinates (Angstroms)
 Number     Number       Type             X           Y           Z
 ---------------------------------------------------------------------
      1          7           0       -0.326982    0.609311    1.030066
      2          1           0       -0.154766    0.244029    1.962013
      3          6           0       -0.450177   -0.324953   -0.108701
      4          1           0       -0.181131    0.235526   -1.014581
      5          6           0       -1.912156   -0.811494   -0.238409
      6          8           0       -2.224122   -1.949092    0.123317
      7          6           0        0.495889   -1.539034    0.052026
      8         16           0        2.292159   -1.112034    0.176560
      9          6           0        2.391701    0.459386   -0.468175
     10          7           0        2.489023    1.553090   -0.912407
     11          1           0        0.216982   -2.092299    0.952169
     12          1           0        0.375409   -2.173553   -0.829542
     13          6           0       -0.590571    1.944418    0.907740
     14          8           0       -0.960402    2.464590   -0.150734
     15          7           0       -2.788105    0.086203   -0.763411
     16          1           0       -0.443745    2.521733    1.834109
     17          1           0       -2.486168    1.029112   -0.993850
     18          1           0       -3.750609   -0.206161   -0.862573
 ---------------------------------------------------------------------

 SCF Done:  E(RHF) =  -904.157596183     a.u. after   12 cycles
 E2 =    -0.1759508556D+01 EUMP2 =    -0.90591710473817D+03

 The electronic state is 1-A.
 Alpha  occ. eigenvalues --  -92.02820 -20.55365 -20.54472 -15.62903 -15.60156
 Alpha  occ. eigenvalues --  -15.60085 -11.38634 -11.38312 -11.33200 -11.31662
 Alpha  occ. eigenvalues --  -11.31658  -9.02944  -6.71206  -6.71014  -6.70871
 Alpha  occ. eigenvalues --   -1.40643  -1.39746  -1.26955  -1.22889  -1.22634
 Alpha  occ. eigenvalues --   -1.11786  -1.03111  -0.92022  -0.86287  -0.81024
 Alpha  occ. eigenvalues --   -0.76371  -0.75088  -0.70334  -0.69850  -0.66837
 Alpha  occ. eigenvalues --   -0.63702  -0.63160  -0.61472  -0.58473  -0.57755
 Alpha  occ. eigenvalues --   -0.56737  -0.55437  -0.53589  -0.52284  -0.46893
 Alpha  occ. eigenvalues --   -0.46075  -0.45607  -0.42954  -0.41801  -0.39145
 Alpha virt. eigenvalues --    0.03064   0.04394   0.04736   0.05966   0.07190
 Alpha virt. eigenvalues --    0.07501   0.08397   0.09356   0.10167   0.10598
 Alpha virt. eigenvalues --    0.10754   0.12112   0.12685   0.12800   0.13315

 Mulliken atomic charges:
              1
     1  N   -0.192655
     2  H    0.366785
     3  C   -0.185554
     4  H    0.257130
     5  C    0.313092
     6  O   -0.416552
     7  C   -0.544243
     8  S   -0.015808
     9  C    0.038096
    10  N   -0.197307
    11  H    0.248542
    12  H    0.249557
    13  C    0.189723
    14  O   -0.444546
    15  N   -0.511422
    16  H    0.152030
    17  H    0.320245
    18  H    0.372888
 Sum of Mulliken atomic charges =   0.00000

 Dipole moment (field-independent basis, Debye):
    X=             -1.1170    Y=             -1.7884    Z=              2.6998  Tot=              3.4257
 Quadrupole moment (field-independent basis, Debye-Ang):
   XX=            -76.4653   YY=            -86.4311   ZZ=            -65.9591
   XY=            -11.7578   XZ=              5.6818   YZ=              8.0115

 Normal termination of Gaussian 09 at Tue Dec 31 09:11:27 2019.
