 Gaussian 09, Revision A.02,
 Gaussian 09:  EM64L-G09RevA.02 11-Jun-2009

 ------------------------------------------------------------------
 #P MP2/6-311++G** SP SCF=(qc,maxcycle=800) Guess=Indo MaxDisk=50GB
 ------------------------------------------------------------------

 --------------------------------------------------------------------
 ModifiedRes Rotatable Bond SP Calculation on bme-nova.bme.utexas.edu
 --------------------------------------------------------------------
 Symbolic Z-matrix:
 Charge =  0 Multiplicity = 1

                         Standard orientation:
 ---------------------------------------------------------------------
 Center     Atomic      Atomic             Coordinates (Angstroms)
 Number     Number       Type             X           Y           Z
 ---------------------------------------------------------------------
      1          7           0       -0.947695   -0.983935   -0.532045
      2          1           0       -0.437872   -1.083934   -1.405303
      3          6           0       -0.654950    0.151552    0.371388
      4          1           0       -0.944450   -0.167604    1.381821
      5          6           0       -1.512145    1.375059   -0.051637
      6          8           0       -1.007748    2.329427   -0.648176
      7          6           0        0.858568    0.528457    0.370973
      8         16           0        1.995358   -0.763584   -0.292527
      9          6           0        3.487289   -0.048623    0.098786
     10          7           0        4.517208    0.449098    0.409077
     11          1           0        1.008221    1.434377   -0.220603
     12          1           0        1.156430    0.713581    1.406458
     13          6           0       -1.995057   -1.833941   -0.315291
     14          8           0       -2.777166   -1.714275    0.634723
     15          7           0       -2.829640    1.310324    0.279820
     16          1           0       -2.083515   -2.640928   -1.059729
     17          1           0       -3.216070    0.482125    0.724170
     18          1           0       -3.410500    2.095083    0.017968
 ---------------------------------------------------------------------

 SCF Done:  E(RHF) =  -904.153294341     a.u. after   11 cycles
 E2 =    -0.1756283253D+01 EUMP2 =    -0.90590957759336D+03

 The electronic state is 1-A.
 Alpha  occ. eigenvalues --  -92.03055 -20.56658 -20.54930 -15.64038 -15.60585
 Alpha  occ. eigenvalues --  -15.60320 -11.39854 -11.38799 -11.34152 -11.31815
 Alpha  occ. eigenvalues --  -11.31107  -9.03198  -6.71460  -6.71279  -6.71122
 Alpha  occ. eigenvalues --   -1.41773  -1.40358  -1.27941  -1.23106  -1.22931
 Alpha  occ. eigenvalues --   -1.11850  -1.03943  -0.91661  -0.87221  -0.81565
 Alpha  occ. eigenvalues --   -0.76931  -0.75670  -0.71227  -0.70550  -0.67678
 Alpha  occ. eigenvalues --   -0.64275  -0.63426  -0.62107  -0.58794  -0.57878
 Alpha  occ. eigenvalues --   -0.57102  -0.56598  -0.53416  -0.51762  -0.47925
 Alpha  occ. eigenvalues --   -0.47097  -0.45978  -0.43338  -0.42666  -0.39219
 Alpha virt. eigenvalues --    0.02865   0.03996   0.05021   0.05781   0.07104
 Alpha virt. eigenvalues --    0.07647   0.08506   0.08665   0.09526   0.10056
 Alpha virt. eigenvalues --    0.11025   0.11576   0.12044   0.12707   0.13309

 Mulliken atomic charges:
              1
     1  N   -0.154341
     2  H    0.325106
     3  C   -0.231753
     4  H    0.313668
     5  C    0.160465
     6  O   -0.425295
     7  C   -0.529677
     8  S    0.313790
     9  C   -0.221286
    10  N   -0.188509
    11  H    0.275016
    12  H    0.180152
    13  C    0.299419
    14  O   -0.460602
    15  N   -0.497220
    16  H    0.163016
    17  H    0.321713
    18  H    0.356337
 Sum of Mulliken atomic charges =   0.00000

 Dipole moment (field-independent basis, Debye):
    X=             -4.0908    Y=             -2.3217    Z=             -1.0334  Tot=              4.8159
 Quadrupole moment (field-independent basis, Debye-Ang):
   XX=            -93.8353   YY=            -78.3029   ZZ=            -70.4509
   XY=             -8.0291   XZ=              0.9576   YZ=              9.7031

 Normal termination of Gaussian 09 at Tue Dec 31 09:00:40 2019.
