 Gaussian 09, Revision A.02,
 Gaussian 09:  EM64L-G09RevA.02 11-Jun-2009

 ------------------------------------------------------------------
 #P MP2/6-311++G** SP SCF=(qc,maxcycle=800) Guess=Indo MaxDisk=50GB
 ------------------------------------------------------------------

 --------------------------------------------------------------------
 ModifiedRes Rotatable Bond SP Calculation on bme-nova.bme.utexas.edu
 --------------------------------------------------------------------
 Symbolic Z-matrix:
 Charge =  0 Multiplicity = 1

                         Standard orientation:
 ---------------------------------------------------------------------
 Center     Atomic      Atomic             Coordinates (Angstroms)
 Number     Number       Type             X           Y           Z
 ---------------------------------------------------------------------
      1          7           0        0.672061    1.104599   -0.312939
      2          1           0       -0.063380    1.191560   -1.008319
      3          6           0        0.635265   -0.030793    0.637176
      4          1           0        1.191061    0.273050    1.535631
      5          6           0        1.338561   -1.254440   -0.008061
      6          8           0        0.711124   -2.291208   -0.233697
      7          6           0       -0.800377   -0.356923    1.098735
      8         16           0       -1.932504   -0.794897   -0.304527
      9          6           0       -3.014051    0.512119   -0.160207
     10          7           0       -3.776485    1.415578   -0.073266
     11          1           0       -0.766572   -1.194871    1.798008
     12          1           0       -1.238695    0.505269    1.608171
     13          6           0        1.726522    1.967718   -0.397494
     14          8           0        2.747913    1.853892    0.289303
     15          7           0        2.663641   -1.115861   -0.282839
     16          1           0        1.590826    2.777061   -1.132113
     17          1           0        3.175945   -0.283207   -0.006925
     18          1           0        3.128545   -1.908273   -0.704453
 ---------------------------------------------------------------------

 SCF Done:  E(RHF) =  -904.163681228     a.u. after   11 cycles
 E2 =    -0.1757259278D+01 EUMP2 =    -0.90592094050612D+03

 The electronic state is 1-A.
 Alpha  occ. eigenvalues --  -92.02784 -20.56156 -20.54922 -15.63295 -15.60294
 Alpha  occ. eigenvalues --  -15.59994 -11.39377 -11.38644 -11.33705 -11.31867
 Alpha  occ. eigenvalues --  -11.31522  -9.02870  -6.71100  -6.70916  -6.70774
 Alpha  occ. eigenvalues --   -1.41406  -1.40378  -1.27373  -1.22900  -1.22724
 Alpha  occ. eigenvalues --   -1.11970  -1.03539  -0.92042  -0.86601  -0.81053
 Alpha  occ. eigenvalues --   -0.77016  -0.75455  -0.71396  -0.69728  -0.67271
 Alpha  occ. eigenvalues --   -0.64103  -0.63099  -0.60540  -0.59680  -0.58761
 Alpha  occ. eigenvalues --   -0.57298  -0.56242  -0.52969  -0.52324  -0.47774
 Alpha  occ. eigenvalues --   -0.46688  -0.45550  -0.43322  -0.42413  -0.39142
 Alpha virt. eigenvalues --    0.03299   0.03870   0.04712   0.06025   0.06878
 Alpha virt. eigenvalues --    0.07609   0.08393   0.08991   0.09590   0.10697
 Alpha virt. eigenvalues --    0.11156   0.12193   0.12481   0.13028   0.13291

 Mulliken atomic charges:
              1
     1  N   -0.191031
     2  H    0.289720
     3  C    0.322954
     4  H    0.308879
     5  C   -0.051559
     6  O   -0.417994
     7  C   -0.779528
     8  S    0.341729
     9  C   -0.263265
    10  N   -0.205248
    11  H    0.259088
    12  H    0.224170
    13  C    0.292123
    14  O   -0.458996
    15  N   -0.508828
    16  H    0.162832
    17  H    0.319544
    18  H    0.355411
 Sum of Mulliken atomic charges =   0.00000

 Dipole moment (field-independent basis, Debye):
    X=              2.9330    Y=              0.1943    Z=             -0.0037  Tot=              2.9394
 Quadrupole moment (field-independent basis, Debye-Ang):
   XX=            -89.7968   YY=            -82.0396   ZZ=            -66.5174
   XY=              0.8216   XZ=             -4.7433   YZ=             -5.6532

 Normal termination of Gaussian 09 at Tue Dec 31 09:00:36 2019.
