 Gaussian 09, Revision A.02,
 Gaussian 09:  EM64L-G09RevA.02 11-Jun-2009

 ---------------------------------------------
 #P opt=(,maxcycle=400) HF/6-31G* MaxDisk=50GB
 ---------------------------------------------

 ------------------------------------------------------------------
 ModifiedRes Rotatable Bond Optimization on bme-nova.bme.utexas.edu
 ------------------------------------------------------------------
 Symbolic Z-matrix:
 Charge =  0 Multiplicity = 1

 SCF Done:  E(RHF) =  -903.986000031     A.U. after   16 cycles
 SCF Done:  E(RHF) =  -904.000536420     A.U. after   14 cycles
 SCF Done:  E(RHF) =  -904.003141311     A.U. after   14 cycles
 SCF Done:  E(RHF) =  -904.007683506     A.U. after   16 cycles
 SCF Done:  E(RHF) =  -904.010416251     A.U. after   16 cycles
 SCF Done:  E(RHF) =  -904.012241570     A.U. after   16 cycles
 SCF Done:  E(RHF) =  -904.012954597     A.U. after   13 cycles
 SCF Done:  E(RHF) =  -904.013077910     A.U. after   13 cycles
 SCF Done:  E(RHF) =  -904.013290809     A.U. after   14 cycles
 SCF Done:  E(RHF) =  -904.013541233     A.U. after   14 cycles
 SCF Done:  E(RHF) =  -904.013440474     A.U. after   13 cycles
 SCF Done:  E(RHF) =  -904.013608534     A.U. after   12 cycles
 SCF Done:  E(RHF) =  -904.013622439     A.U. after   12 cycles
 SCF Done:  E(RHF) =  -904.013631735     A.U. after   12 cycles
 SCF Done:  E(RHF) =  -904.013636985     A.U. after   11 cycles
 SCF Done:  E(RHF) =  -904.013638105     A.U. after   10 cycles
 SCF Done:  E(RHF) =  -904.013638301     A.U. after   10 cycles
 SCF Done:  E(RHF) =  -904.013638357     A.U. after    9 cycles
 Optimization completed.
    -- Stationary point found.

                         Standard orientation:
 ---------------------------------------------------------------------
 Center     Atomic      Atomic             Coordinates (Angstroms)
 Number     Number       Type             X           Y           Z
 ---------------------------------------------------------------------
      1          7           0        0.683414    1.118587   -0.289270
      2          1           0       -0.058410    1.227931   -0.945234
      3          6           0        0.655193   -0.023491    0.603214
      4          1           0        1.235327    0.248813    1.476757
      5          6           0        1.301088   -1.270978   -0.016006
      6          8           0        0.654631   -2.265501   -0.210907
      7          6           0       -0.760348   -0.333614    1.076975
      8         16           0       -1.913161   -0.776918   -0.288154
      9          6           0       -3.012450    0.528016   -0.150815
     10          7           0       -3.746980    1.394830   -0.090795
     11          1           0       -0.738448   -1.180116    1.744452
     12          1           0       -1.171068    0.517284    1.598267
     13          6           0        1.736242    1.953402   -0.365589
     14          8           0        2.750576    1.827719    0.262647
     15          7           0        2.607438   -1.157959   -0.292991
     16          1           0        1.582930    2.774269   -1.062793
     17          1           0        3.118799   -0.326917   -0.089081
     18          1           0        3.074315   -1.936531   -0.701097
 ---------------------------------------------------------------------

 The electronic state is 1-A.
 Alpha  occ. eigenvalues --  -92.00888 -20.56492 -20.55081 -15.62678 -15.59759
 Alpha  occ. eigenvalues --  -15.58733 -11.38089 -11.37287 -11.31852 -11.30460
 Alpha  occ. eigenvalues --  -11.29876  -9.01707  -6.69988  -6.69799  -6.69608
 Alpha  occ. eigenvalues --   -1.42943  -1.41663  -1.28166  -1.24221  -1.23245
 Alpha  occ. eigenvalues --   -1.11854  -1.03075  -0.91571  -0.86698  -0.81413
 Alpha  occ. eigenvalues --   -0.77454  -0.75566  -0.71204  -0.69782  -0.66923
 Alpha  occ. eigenvalues --   -0.64078  -0.63059  -0.60507  -0.59498  -0.58658
 Alpha  occ. eigenvalues --   -0.57501  -0.55687  -0.52797  -0.52568  -0.47580
 Alpha  occ. eigenvalues --   -0.46024  -0.45694  -0.42896  -0.41553  -0.38587
 Alpha virt. eigenvalues --    0.13441   0.15897   0.18658   0.19698   0.20244
 Alpha virt. eigenvalues --    0.22228   0.23090   0.23824   0.24876   0.27934
 Alpha virt. eigenvalues --    0.28426   0.30353   0.32401   0.34271   0.36975

 Mulliken atomic charges:
              1
     1  N   -0.765656
     2  H    0.419872
     3  C   -0.081407
     4  H    0.251383
     5  C    0.780322
     6  O   -0.607497
     7  C   -0.501449
     8  S    0.307889
     9  C    0.066430
    10  N   -0.391703
    11  H    0.251955
    12  H    0.248124
    13  C    0.519777
    14  O   -0.587860
    15  N   -0.938486
    16  H    0.183896
    17  H    0.442399
    18  H    0.402014
 Sum of Mulliken atomic charges =   0.00000

 Dipole moment (field-independent basis, Debye):
    X=              3.1434    Y=              0.2656    Z=             -0.0477  Tot=              3.1549
 Quadrupole moment (field-independent basis, Debye-Ang):
   XX=            -86.9931   YY=            -79.3929   ZZ=            -65.8420
   XY=              0.1875   XZ=             -4.6235   YZ=             -4.7046

 Normal termination of Gaussian 09 at Tue Dec 31 08:59:06 2019.
