 Gaussian 09, Revision A.02,
 Gaussian 09:  EM64L-G09RevA.02 11-Jun-2009

 ---------------------------------------------
 #P opt=(,maxcycle=400) HF/6-31G* MaxDisk=50GB
 ---------------------------------------------

 ------------------------------------------------------------------
 ModifiedRes Rotatable Bond Optimization on bme-nova.bme.utexas.edu
 ------------------------------------------------------------------
 Symbolic Z-matrix:
 Charge =  0 Multiplicity = 1

 SCF Done:  E(RHF) =  -903.996600200     A.U. after   16 cycles
 SCF Done:  E(RHF) =  -904.010085815     A.U. after   14 cycles
 SCF Done:  E(RHF) =  -904.011194466     A.U. after   15 cycles
 SCF Done:  E(RHF) =  -904.011040671     A.U. after   14 cycles
 SCF Done:  E(RHF) =  -904.011231433     A.U. after   13 cycles
 SCF Done:  E(RHF) =  -904.011459336     A.U. after   13 cycles
 SCF Done:  E(RHF) =  -904.011453281     A.U. after   12 cycles
 SCF Done:  E(RHF) =  -904.011474096     A.U. after   11 cycles
 SCF Done:  E(RHF) =  -904.011477400     A.U. after   11 cycles
 SCF Done:  E(RHF) =  -904.011479955     A.U. after   10 cycles
 SCF Done:  E(RHF) =  -904.011481140     A.U. after   10 cycles
 SCF Done:  E(RHF) =  -904.011481415     A.U. after    9 cycles
 SCF Done:  E(RHF) =  -904.011481475     A.U. after    8 cycles
 Optimization completed.
    -- Stationary point found.

                         Standard orientation:
 ---------------------------------------------------------------------
 Center     Atomic      Atomic             Coordinates (Angstroms)
 Number     Number       Type             X           Y           Z
 ---------------------------------------------------------------------
      1          7           0        0.972460   -0.886546    0.757472
      2          1           0        0.594608   -0.861762    1.679113
      3          6           0        0.605201    0.165515   -0.176269
      4          1           0        0.716802   -0.245005   -1.170481
      5          6           0        1.544210    1.374349   -0.029505
      6          8           0        1.190551    2.378075    0.522246
      7          6           0       -0.834679    0.613869    0.043891
      8         16           0       -1.956419   -0.821330   -0.178424
      9          6           0       -3.448569    0.001812   -0.101633
     10          7           0       -4.455931    0.527027   -0.051789
     11          1           0       -0.966913    1.027918    1.031297
     12          1           0       -1.092468    1.372422   -0.678189
     13          6           0        1.915353   -1.808756    0.474685
     14          8           0        2.539551   -1.848530   -0.547110
     15          7           0        2.763498    1.195709   -0.565880
     16          1           0        2.058822   -2.533741    1.272981
     17          1           0        3.055388    0.305476   -0.906721
     18          1           0        3.446360    1.905536   -0.419947
 ---------------------------------------------------------------------

 The electronic state is 1-A.
 Alpha  occ. eigenvalues --  -92.01092 -20.56942 -20.54871 -15.63318 -15.59690
 Alpha  occ. eigenvalues --  -15.58910 -11.38514 -11.37291 -11.32196 -11.30403
 Alpha  occ. eigenvalues --  -11.30074  -9.02001  -6.70310  -6.70120  -6.69916
 Alpha  occ. eigenvalues --   -1.43376  -1.41612  -1.28588  -1.24301  -1.23196
 Alpha  occ. eigenvalues --   -1.12246  -1.03306  -0.91358  -0.87054  -0.81769
 Alpha  occ. eigenvalues --   -0.76976  -0.75845  -0.71460  -0.69983  -0.67175
 Alpha  occ. eigenvalues --   -0.64515  -0.62831  -0.62082  -0.58996  -0.58408
 Alpha  occ. eigenvalues --   -0.57100  -0.56110  -0.53407  -0.52340  -0.47400
 Alpha  occ. eigenvalues --   -0.46509  -0.46143  -0.42867  -0.41762  -0.38699
 Alpha virt. eigenvalues --    0.12891   0.15869   0.17634   0.19441   0.20870
 Alpha virt. eigenvalues --    0.21180   0.22430   0.23472   0.24300   0.27395
 Alpha virt. eigenvalues --    0.28401   0.29670   0.32298   0.34507   0.37791

 Mulliken atomic charges:
              1
     1  N   -0.768354
     2  H    0.406917
     3  C   -0.100325
     4  H    0.253885
     5  C    0.775504
     6  O   -0.596795
     7  C   -0.492815
     8  S    0.285901
     9  C    0.084648
    10  N   -0.376496
    11  H    0.246052
    12  H    0.252462
    13  C    0.521830
    14  O   -0.579252
    15  N   -0.934329
    16  H    0.182735
    17  H    0.439027
    18  H    0.399405
 Sum of Mulliken atomic charges =   0.00000

 Dipole moment (field-independent basis, Debye):
    X=              4.1236    Y=             -2.0527    Z=              1.5065  Tot=              4.8464
 Quadrupole moment (field-independent basis, Debye-Ang):
   XX=            -89.2717   YY=            -79.2398   ZZ=            -67.5878
   XY=              6.4415   XZ=              2.5872   YZ=             -8.6380

 Normal termination of Gaussian 09 at Tue Dec 31 08:57:48 2019.
