 Gaussian 09, Revision A.02,
 Gaussian 09:  EM64L-G09RevA.02 11-Jun-2009

 ---------------------------------------------
 #P opt=(,maxcycle=400) HF/6-31G* MaxDisk=50GB
 ---------------------------------------------

 ------------------------------------------------------------------
 ModifiedRes Rotatable Bond Optimization on bme-nova.bme.utexas.edu
 ------------------------------------------------------------------
 Symbolic Z-matrix:
 Charge =  0 Multiplicity = 1

 SCF Done:  E(RHF) =  -903.995778834     A.U. after   16 cycles
 SCF Done:  E(RHF) =  -904.010859534     A.U. after   15 cycles
 SCF Done:  E(RHF) =  -904.011578342     A.U. after   16 cycles
 SCF Done:  E(RHF) =  -904.011629113     A.U. after   14 cycles
 SCF Done:  E(RHF) =  -904.011711269     A.U. after   13 cycles
 SCF Done:  E(RHF) =  -904.011989410     A.U. after   13 cycles
 SCF Done:  E(RHF) =  -904.011965452     A.U. after   12 cycles
 SCF Done:  E(RHF) =  -904.012008565     A.U. after   11 cycles
 SCF Done:  E(RHF) =  -904.012015870     A.U. after   12 cycles
 SCF Done:  E(RHF) =  -904.012023219     A.U. after   11 cycles
 SCF Done:  E(RHF) =  -904.012025693     A.U. after   12 cycles
 SCF Done:  E(RHF) =  -904.012026097     A.U. after   10 cycles
 SCF Done:  E(RHF) =  -904.012026139     A.U. after   10 cycles
 SCF Done:  E(RHF) =  -904.012026210     A.U. after    8 cycles
 Optimization completed.
    -- Stationary point found.

                         Standard orientation:
 ---------------------------------------------------------------------
 Center     Atomic      Atomic             Coordinates (Angstroms)
 Number     Number       Type             X           Y           Z
 ---------------------------------------------------------------------
      1          7           0        0.711807    0.705687   -1.055347
      2          1           0        0.526307    0.438818   -1.996077
      3          6           0        0.433973   -0.236464    0.013262
      4          1           0        0.158374    0.341078    0.884905
      5          6           0        1.693979   -1.058035    0.334296
      6          8           0        1.820160   -2.186020   -0.055512
      7          6           0       -0.693947   -1.194226   -0.357571
      8         16           0       -2.287984   -0.399368   -0.764107
      9          6           0       -2.664032    0.296608    0.748066
     10          7           0       -2.927525    0.767264    1.749310
     11          1           0       -0.439510   -1.764776   -1.240284
     12          1           0       -0.851733   -1.901561    0.441371
     13          6           0        1.231498    1.926960   -0.824848
     14          8           0        1.568246    2.329226    0.252396
     15          7           0        2.609689   -0.406094    1.069744
     16          1           0        1.324063    2.530476   -1.725500
     17          1           0        2.527382    0.572516    1.243343
     18          1           0        3.488991   -0.849369    1.217698
 ---------------------------------------------------------------------

 The electronic state is 1-A.
 Alpha  occ. eigenvalues --  -92.01319 -20.56206 -20.54430 -15.62624 -15.59238
 Alpha  occ. eigenvalues --  -15.59192 -11.37823 -11.36812 -11.31508 -11.30578
 Alpha  occ. eigenvalues --  -11.30340  -9.02222  -6.70535  -6.70338  -6.70141
 Alpha  occ. eigenvalues --   -1.42672  -1.41117  -1.27939  -1.24610  -1.22734
 Alpha  occ. eigenvalues --   -1.12235  -1.03036  -0.91641  -0.86471  -0.81127
 Alpha  occ. eigenvalues --   -0.76783  -0.75109  -0.70866  -0.70104  -0.66466
 Alpha  occ. eigenvalues --   -0.63585  -0.62643  -0.61842  -0.59556  -0.57613
 Alpha  occ. eigenvalues --   -0.56976  -0.55491  -0.53821  -0.52752  -0.46785
 Alpha  occ. eigenvalues --   -0.46529  -0.45729  -0.42432  -0.40963  -0.39143
 Alpha virt. eigenvalues --    0.12461   0.16572   0.18349   0.19276   0.20449
 Alpha virt. eigenvalues --    0.21506   0.22784   0.23873   0.24869   0.27223
 Alpha virt. eigenvalues --    0.29134   0.29873   0.32483   0.34212   0.37842

 Mulliken atomic charges:
              1
     1  N   -0.758003
     2  H    0.399536
     3  C   -0.077332
     4  H    0.259622
     5  C    0.772161
     6  O   -0.604998
     7  C   -0.519366
     8  S    0.282995
     9  C    0.093548
    10  N   -0.376964
    11  H    0.243586
    12  H    0.257305
    13  C    0.523394
    14  O   -0.580431
    15  N   -0.931093
    16  H    0.178137
    17  H    0.440735
    18  H    0.397168
 Sum of Mulliken atomic charges =   0.00000

 Dipole moment (field-independent basis, Debye):
    X=              1.8554    Y=             -0.2860    Z=             -4.0653  Tot=              4.4778
 Quadrupole moment (field-independent basis, Debye-Ang):
   XX=            -75.2929   YY=            -82.7283   ZZ=            -68.4610
   XY=              6.2121   XZ=              7.0723   YZ=             -7.7296

 Normal termination of Gaussian 09 at Tue Dec 31 09:07:33 2019.
