 Gaussian 09, Revision A.02,
 Gaussian 09:  EM64L-G09RevA.02 11-Jun-2009

 ------------------------------------------------------------------
 #P MP2/6-311++G** SP SCF=(qc,maxcycle=800) Guess=Indo MaxDisk=50GB
 ------------------------------------------------------------------

 --------------------------------------------------------------------
 ModifiedRes Rotatable Bond SP Calculation on bme-nova.bme.utexas.edu
 --------------------------------------------------------------------
 Symbolic Z-matrix:
 Charge =  0 Multiplicity = 1

                         Standard orientation:
 ---------------------------------------------------------------------
 Center     Atomic      Atomic             Coordinates (Angstroms)
 Number     Number       Type             X           Y           Z
 ---------------------------------------------------------------------
      1          7           0       -0.633966    0.893146    0.724054
      2          1           0       -0.034149    0.834993    1.542059
      3          6           0       -0.618010   -0.195391   -0.276121
      4          1           0       -0.848742    0.256725   -1.250740
      5          6           0       -1.712053   -1.240262    0.051928
      6          8           0       -1.402002   -2.353258    0.483009
      7          6           0        0.760334   -0.886691   -0.344209
      8         16           0        2.032073    0.304201   -0.942258
      9          6           0        3.228817    0.038024    0.235814
     10          7           0        4.031764   -0.133925    1.090705
     11          1           0        1.007256   -1.314664    0.629602
     12          1           0        0.719856   -1.701735   -1.070472
     13          6           0       -1.436948    1.989716    0.592937
     14          8           0       -2.260652    2.117035   -0.320511
     15          7           0       -2.993680   -0.847131   -0.176453
     16          1           0       -1.293132    2.752187    1.374682
     17          1           0       -3.199025    0.091893   -0.506521
     18          1           0       -3.725665   -1.513838    0.027302
 ---------------------------------------------------------------------

 SCF Done:  E(RHF) =  -904.160635662     a.u. after   12 cycles
 E2 =    -0.1756512169D+01 EUMP2 =    -0.90591714783130D+03

 The electronic state is 1-A.
 Alpha  occ. eigenvalues --  -92.03105 -20.56247 -20.54665 -15.63533 -15.60341
 Alpha  occ. eigenvalues --  -15.60282 -11.39455 -11.38510 -11.33583 -11.31972
 Alpha  occ. eigenvalues --  -11.31567  -9.03254  -6.71511  -6.71326  -6.71179
 Alpha  occ. eigenvalues --   -1.41388  -1.40097  -1.27489  -1.23085  -1.22852
 Alpha  occ. eigenvalues --   -1.12357  -1.03678  -0.91813  -0.86861  -0.81307
 Alpha  occ. eigenvalues --   -0.76593  -0.75552  -0.72140  -0.69586  -0.67533
 Alpha  occ. eigenvalues --   -0.64065  -0.63384  -0.60956  -0.59133  -0.58208
 Alpha  occ. eigenvalues --   -0.57011  -0.56669  -0.53352  -0.52501  -0.47521
 Alpha  occ. eigenvalues --   -0.46743  -0.46143  -0.43129  -0.42337  -0.39370
 Alpha virt. eigenvalues --    0.03144   0.04022   0.05009   0.05819   0.06918
 Alpha virt. eigenvalues --    0.07303   0.08714   0.08904   0.09456   0.10365
 Alpha virt. eigenvalues --    0.10822   0.11700   0.12511   0.12947   0.13365

 Mulliken atomic charges:
              1
     1  N   -0.097564
     2  H    0.351801
     3  C   -0.461730
     4  H    0.268412
     5  C    0.296660
     6  O   -0.404802
     7  C   -0.522314
     8  S    0.352883
     9  C   -0.277121
    10  N   -0.182507
    11  H    0.251415
    12  H    0.269731
    13  C    0.281704
    14  O   -0.459939
    15  N   -0.513720
    16  H    0.158788
    17  H    0.317036
    18  H    0.371267
 Sum of Mulliken atomic charges =   0.00000

 Dipole moment (field-independent basis, Debye):
    X=             -2.8761    Y=              1.5402    Z=             -0.5313  Tot=              3.3055
 Quadrupole moment (field-independent basis, Debye-Ang):
   XX=            -87.6030   YY=            -81.8585   ZZ=            -70.5065
   XY=              3.9425   XZ=             -7.9027   YZ=              9.1551

 Normal termination of Gaussian 09 at Tue Dec 31 09:11:19 2019.
