 Gaussian 09, Revision A.02,
 Gaussian 09:  EM64L-G09RevA.02 11-Jun-2009

 ------------------------------------------------------------------
 #P MP2/6-311++G** SP SCF=(qc,maxcycle=800) Guess=Indo MaxDisk=50GB
 ------------------------------------------------------------------

 --------------------------------------------------------------------
 ModifiedRes Rotatable Bond SP Calculation on bme-nova.bme.utexas.edu
 --------------------------------------------------------------------
 Symbolic Z-matrix:
 Charge =  0 Multiplicity = 1

                         Standard orientation:
 ---------------------------------------------------------------------
 Center     Atomic      Atomic             Coordinates (Angstroms)
 Number     Number       Type             X           Y           Z
 ---------------------------------------------------------------------
      1          7           0       -1.307853   -1.121721   -0.573420
      2          1           0       -0.774353   -1.343463   -1.409519
      3          6           0       -0.713989   -0.228258    0.446194
      4          1           0       -1.183670   -0.464513    1.411108
      5          6           0       -1.050163    1.246768    0.083633
      6          8           0       -0.232011    2.023279   -0.402018
      7          6           0        0.821446   -0.487052    0.558024
      8         16           0        2.070138    0.543723   -0.344932
      9          6           0        3.423857   -0.409968    0.052630
     10          7           0        4.346890   -1.110208    0.308308
     11          1           0        1.078419   -0.402102    1.617885
     12          1           0        0.990991   -1.503796    0.188854
     13          6           0       -2.605284   -1.544314   -0.510975
     14          8           0       -3.384580   -1.207743    0.387745
     15          7           0       -2.332411    1.620182    0.345628
     16          1           0       -2.900431   -2.217031   -1.331744
     17          1           0       -3.016809    0.952082    0.688864
     18          1           0       -2.585217    2.574150    0.127005
 ---------------------------------------------------------------------

 SCF Done:  E(RHF) =  -904.150161040     a.u. after   11 cycles
 E2 =    -0.1756853088D+01 EUMP2 =    -0.90590701412808D+03

 The electronic state is 1-A.
 Alpha  occ. eigenvalues --  -92.01671 -20.56724 -20.55230 -15.64081 -15.60344
 Alpha  occ. eigenvalues --  -15.59144 -11.39938 -11.38903 -11.34522 -11.31617
 Alpha  occ. eigenvalues --  -11.30467  -9.01724  -6.69939  -6.69761  -6.69592
 Alpha  occ. eigenvalues --   -1.41937  -1.40979  -1.27972  -1.22972  -1.21856
 Alpha  occ. eigenvalues --   -1.11324  -1.03424  -0.91602  -0.87292  -0.81467
 Alpha  occ. eigenvalues --   -0.77244  -0.75262  -0.71108  -0.70073  -0.67484
 Alpha  occ. eigenvalues --   -0.64694  -0.63362  -0.61410  -0.58930  -0.58641
 Alpha  occ. eigenvalues --   -0.57425  -0.55836  -0.52353  -0.51002  -0.48035
 Alpha  occ. eigenvalues --   -0.47222  -0.44687  -0.43501  -0.42531  -0.37817
 Alpha virt. eigenvalues --    0.02569   0.03870   0.04724   0.05682   0.07024
 Alpha virt. eigenvalues --    0.07773   0.08197   0.09091   0.09596   0.10888
 Alpha virt. eigenvalues --    0.11506   0.11696   0.12106   0.12879   0.13162

 Mulliken atomic charges:
              1
     1  N   -0.227521
     2  H    0.331769
     3  C    0.165241
     4  H    0.342939
     5  C    0.067717
     6  O   -0.398674
     7  C   -0.797662
     8  S    0.317176
     9  C   -0.174048
    10  N   -0.230383
    11  H    0.187924
    12  H    0.212386
    13  C    0.310144
    14  O   -0.460673
    15  N   -0.477157
    16  H    0.160788
    17  H    0.317784
    18  H    0.352249
 Sum of Mulliken atomic charges =   0.00000

 Dipole moment (field-independent basis, Debye):
    X=             -4.9573    Y=             -1.2554    Z=             -0.9556  Tot=              5.2023
 Quadrupole moment (field-independent basis, Debye-Ang):
   XX=            -99.6585   YY=            -73.8637   ZZ=            -68.1624
   XY=              0.9870   XZ=              3.4286   YZ=              7.4457

 Normal termination of Gaussian 09 at Tue Dec 31 09:03:27 2019.
