 Gaussian 09, Revision A.02,
 Gaussian 09:  EM64L-G09RevA.02 11-Jun-2009

 ---------------------------------------------
 #P opt=(,maxcycle=400) HF/6-31G* MaxDisk=50GB
 ---------------------------------------------

 ------------------------------------------------------------------
 ModifiedRes Rotatable Bond Optimization on bme-nova.bme.utexas.edu
 ------------------------------------------------------------------
 Symbolic Z-matrix:
 Charge =  0 Multiplicity = 1

 SCF Done:  E(RHF) =  -903.980127742     A.U. after   16 cycles
 SCF Done:  E(RHF) =  -903.995634621     A.U. after   14 cycles
 SCF Done:  E(RHF) =  -903.997676198     A.U. after   14 cycles
 SCF Done:  E(RHF) =  -904.000408088     A.U. after   17 cycles
 SCF Done:  E(RHF) =  -904.002693454     A.U. after   17 cycles
 SCF Done:  E(RHF) =  -904.003657699     A.U. after   15 cycles
 SCF Done:  E(RHF) =  -904.004544614     A.U. after   16 cycles
 SCF Done:  E(RHF) =  -904.005562970     A.U. after   17 cycles
 SCF Done:  E(RHF) =  -904.005557175     A.U. after   13 cycles
 SCF Done:  E(RHF) =  -904.005873049     A.U. after   13 cycles
 SCF Done:  E(RHF) =  -904.005951970     A.U. after   12 cycles
 SCF Done:  E(RHF) =  -904.005965841     A.U. after   12 cycles
 SCF Done:  E(RHF) =  -904.005971616     A.U. after   11 cycles
 SCF Done:  E(RHF) =  -904.005973189     A.U. after   11 cycles
 SCF Done:  E(RHF) =  -904.005973573     A.U. after   10 cycles
 SCF Done:  E(RHF) =  -904.005973638     A.U. after   10 cycles
 Optimization completed.
    -- Stationary point found.

                         Standard orientation:
 ---------------------------------------------------------------------
 Center     Atomic      Atomic             Coordinates (Angstroms)
 Number     Number       Type             X           Y           Z
 ---------------------------------------------------------------------
      1          7           0       -1.057546    1.146504   -0.747722
      2          1           0       -0.883774    1.602071   -1.615764
      3          6           0       -0.682959   -0.252709   -0.627931
      4          1           0       -0.518801   -0.603221   -1.640881
      5          6           0       -1.798759   -1.152422   -0.074704
      6          8           0       -1.522370   -2.177169    0.475886
      7          6           0        0.596837   -0.484566    0.179902
      8         16           0        1.949738    0.502579   -0.574205
      9          6           0        3.293907   -0.255417    0.149103
     10          7           0        4.211364   -0.741114    0.613257
     11          1           0        0.467974   -0.184853    1.206512
     12          1           0        0.861273   -1.527196    0.139461
     13          6           0       -1.322936    1.931654    0.329117
     14          8           0       -1.449067    1.522095    1.441244
     15          7           0       -3.063859   -0.782014   -0.367219
     16          1           0       -1.437709    2.983797    0.072003
     17          1           0       -3.273619    0.160067   -0.598688
     18          1           0       -3.785916   -1.314215    0.066453
 ---------------------------------------------------------------------

 The electronic state is 1-A.
 Alpha  occ. eigenvalues --  -92.00583 -20.57036 -20.54734 -15.63341 -15.59945
 Alpha  occ. eigenvalues --  -15.58470 -11.38372 -11.37459 -11.32540 -11.29705
 Alpha  occ. eigenvalues --  -11.29253  -9.01516  -6.69837  -6.69640  -6.69444
 Alpha  occ. eigenvalues --   -1.43567  -1.41701  -1.28660  -1.23868  -1.23114
 Alpha  occ. eigenvalues --   -1.11558  -1.03116  -0.91465  -0.86634  -0.79704
 Alpha  occ. eigenvalues --   -0.79474  -0.75545  -0.70799  -0.68040  -0.67475
 Alpha  occ. eigenvalues --   -0.65183  -0.62540  -0.61386  -0.60458  -0.58264
 Alpha  occ. eigenvalues --   -0.55974  -0.55492  -0.53004  -0.51988  -0.46698
 Alpha  occ. eigenvalues --   -0.46167  -0.45697  -0.43380  -0.42069  -0.38370
 Alpha virt. eigenvalues --    0.12848   0.16460   0.17140   0.18715   0.21439
 Alpha virt. eigenvalues --    0.21688   0.22298   0.23768   0.25181   0.26951
 Alpha virt. eigenvalues --    0.27769   0.28774   0.31102   0.35421   0.38405

 Mulliken atomic charges:
              1
     1  N   -0.803561
     2  H    0.402433
     3  C   -0.073013
     4  H    0.241167
     5  C    0.782847
     6  O   -0.589910
     7  C   -0.494792
     8  S    0.255246
     9  C    0.090563
    10  N   -0.377401
    11  H    0.269546
    12  H    0.265144
    13  C    0.503363
    14  O   -0.541271
    15  N   -0.906933
    16  H    0.176086
    17  H    0.399197
    18  H    0.401289
 Sum of Mulliken atomic charges =   0.00000

 Dipole moment (field-independent basis, Debye):
    X=             -5.1665    Y=              4.0381    Z=             -4.9993  Tot=              8.2457
 Quadrupole moment (field-independent basis, Debye-Ang):
   XX=            -81.4472   YY=            -73.2460   ZZ=            -73.6978
   XY=             -0.1949   XZ=              1.7178   YZ=             -3.1789

 Normal termination of Gaussian 09 at Mon Dec 30 09:51:38 2019.
