 Gaussian 09, Revision A.02,
 Gaussian 09:  EM64L-G09RevA.02 11-Jun-2009

 ------------------------------------------------------------------
 #P MP2/6-311++G** SP SCF=(qc,maxcycle=800) Guess=Indo MaxDisk=50GB
 ------------------------------------------------------------------

 --------------------------------------------------------------------
 ModifiedRes Rotatable Bond SP Calculation on bme-nova.bme.utexas.edu
 --------------------------------------------------------------------
 Symbolic Z-matrix:
 Charge =  0 Multiplicity = 1

                         Standard orientation:
 ---------------------------------------------------------------------
 Center     Atomic      Atomic             Coordinates (Angstroms)
 Number     Number       Type             X           Y           Z
 ---------------------------------------------------------------------
      1          7           0        1.217948    1.068850   -0.402195
      2          1           0        1.642552    1.208951   -1.312217
      3          6           0        0.788060   -0.201587    0.211647
      4          1           0        0.639728   -0.035957    1.286368
      5          6           0        1.863237   -1.287126   -0.029601
      6          8           0        2.450510   -1.344465   -1.110475
      7          6           0       -0.532569   -0.705969   -0.402580
      8         16           0       -1.864356    0.564750   -0.230812
      9          6           0       -3.178628   -0.476739    0.059599
     10          7           0       -4.071177   -1.219019    0.302074
     11          1           0       -0.393096   -0.916685   -1.466416
     12          1           0       -0.860199   -1.617625    0.103391
     13          6           0        1.444438    2.165180    0.378413
     14          8           0        0.732054    3.169156    0.350124
     15          7           0        2.051053   -2.180490    0.979316
     16          1           0        2.335839    2.084958    1.021550
     17          1           0        1.570412   -2.104558    1.867637
     18          1           0        2.741948   -2.900549    0.816262
 ---------------------------------------------------------------------

 SCF Done:  E(RHF) =  -904.115266849     a.u. after   11 cycles
 E2 =    -0.1755918099D+01 EUMP2 =    -0.90587118494781D+03

 The electronic state is 1-A.
 Alpha  occ. eigenvalues --  -92.02453 -20.57879 -20.55832 -15.62908 -15.59716
 Alpha  occ. eigenvalues --  -15.58935 -11.39765 -11.38137 -11.34696 -11.31696
 Alpha  occ. eigenvalues --  -11.31336  -9.02557  -6.70792  -6.70613  -6.70458
 Alpha  occ. eigenvalues --   -1.41680  -1.40974  -1.26256  -1.25083  -1.22474
 Alpha  occ. eigenvalues --   -1.11989  -1.03437  -0.91243  -0.85911  -0.83308
 Alpha  occ. eigenvalues --   -0.77943  -0.74491  -0.70609  -0.69421  -0.68406
 Alpha  occ. eigenvalues --   -0.66716  -0.63966  -0.63102  -0.59925  -0.57559
 Alpha  occ. eigenvalues --   -0.56536  -0.53567  -0.52214  -0.51793  -0.47456
 Alpha  occ. eigenvalues --   -0.46630  -0.45688  -0.44947  -0.41753  -0.38620
 Alpha virt. eigenvalues --    0.01946   0.04367   0.04787   0.05261   0.07031
 Alpha virt. eigenvalues --    0.07151   0.07674   0.08411   0.09909   0.10082
 Alpha virt. eigenvalues --    0.10514   0.12054   0.12337   0.13064   0.13227

 Mulliken atomic charges:
              1
     1  N   -0.121979
     2  H    0.352957
     3  C   -0.620936
     4  H    0.217945
     5  C    0.280283
     6  O   -0.412845
     7  C   -0.203118
     8  S    0.308069
     9  C   -0.161203
    10  N   -0.222252
    11  H    0.239342
    12  H    0.158310
    13  C    0.128797
    14  O   -0.277003
    15  N   -0.452976
    16  H    0.152078
    17  H    0.274360
    18  H    0.360173
 Sum of Mulliken atomic charges =   0.00000

 Dipole moment (field-independent basis, Debye):
    X=              4.9161    Y=             -2.7076    Z=              2.7380  Tot=              6.2446
 Quadrupole moment (field-independent basis, Debye-Ang):
   XX=            -91.3227   YY=            -81.2697   ZZ=            -68.8170
   XY=             -6.2511   XZ=             10.3469   YZ=             -7.9650

 Normal termination of Gaussian 09 at Mon Dec 30 09:47:22 2019.
