 Gaussian 09, Revision A.02,
 Gaussian 09:  EM64L-G09RevA.02 11-Jun-2009

 ------------------------------------------------------------------
 #P MP2/6-311++G** SP SCF=(qc,maxcycle=800) Guess=Indo MaxDisk=50GB
 ------------------------------------------------------------------

 --------------------------------------------------------------------
 ModifiedRes Rotatable Bond SP Calculation on bme-nova.bme.utexas.edu
 --------------------------------------------------------------------
 Symbolic Z-matrix:
 Charge =  0 Multiplicity = 1

                         Standard orientation:
 ---------------------------------------------------------------------
 Center     Atomic      Atomic             Coordinates (Angstroms)
 Number     Number       Type             X           Y           Z
 ---------------------------------------------------------------------
      1          7           0        1.015295   -0.905259    0.777340
      2          1           0        0.653189   -0.895967    1.726535
      3          6           0        0.606649    0.155592   -0.166348
      4          1           0        0.710626   -0.257982   -1.179078
      5          6           0        1.542837    1.379810   -0.026513
      6          8           0        1.156069    2.396474    0.554147
      7          6           0       -0.856243    0.585726    0.069021
      8         16           0       -1.987625   -0.852196   -0.138171
      9          6           0       -3.473217   -0.026034   -0.140067
     10          7           0       -4.501658    0.562266   -0.108357
     11          1           0       -0.979918    1.003036    1.070755
     12          1           0       -1.122263    1.349592   -0.665602
     13          6           0        1.984539   -1.817486    0.470649
     14          8           0        2.595564   -1.817482   -0.603927
     15          7           0        2.779086    1.243388   -0.576209
     16          1           0        2.175353   -2.558318    1.263059
     17          1           0        3.067279    0.363343   -0.994883
     18          1           0        3.408216    2.031080   -0.501675
 ---------------------------------------------------------------------

 SCF Done:  E(RHF) =  -904.162340975     a.u. after   11 cycles
 E2 =    -0.1755653115D+01 EUMP2 =    -0.90591799409004D+03

 The electronic state is 1-A.
 Alpha  occ. eigenvalues --  -92.02864 -20.56631 -20.54823 -15.63999 -15.60612
 Alpha  occ. eigenvalues --  -15.60106 -11.39837 -11.38717 -11.33840 -11.31623
 Alpha  occ. eigenvalues --  -11.31477  -9.03009  -6.71267  -6.71085  -6.70931
 Alpha  occ. eigenvalues --   -1.41760  -1.40282  -1.27957  -1.23139  -1.22783
 Alpha  occ. eigenvalues --   -1.12283  -1.03759  -0.91691  -0.87258  -0.81629
 Alpha  occ. eigenvalues --   -0.76849  -0.75765  -0.71660  -0.70255  -0.67690
 Alpha  occ. eigenvalues --   -0.64314  -0.62834  -0.62110  -0.58974  -0.58309
 Alpha  occ. eigenvalues --   -0.57027  -0.56652  -0.53411  -0.51934  -0.47806
 Alpha  occ. eigenvalues --   -0.47078  -0.45872  -0.43351  -0.42704  -0.39107
 Alpha virt. eigenvalues --    0.02667   0.04102   0.05146   0.05495   0.07139
 Alpha virt. eigenvalues --    0.07548   0.08484   0.08740   0.09522   0.10722
 Alpha virt. eigenvalues --    0.10808   0.11834   0.12576   0.12787   0.13082

 Mulliken atomic charges:
              1
     1  N   -0.125300
     2  H    0.338972
     3  C   -0.369581
     4  H    0.272671
     5  C    0.244730
     6  O   -0.401911
     7  C   -0.465470
     8  S    0.133188
     9  C   -0.101946
    10  N   -0.199437
    11  H    0.259594
    12  H    0.234715
    13  C    0.286964
    14  O   -0.451535
    15  N   -0.502365
    16  H    0.159449
    17  H    0.318665
    18  H    0.368598
 Sum of Mulliken atomic charges =   0.00000

 Dipole moment (field-independent basis, Debye):
    X=              4.2454    Y=             -2.3231    Z=              1.4212  Tot=              5.0438
 Quadrupole moment (field-independent basis, Debye-Ang):
   XX=            -92.7957   YY=            -80.6259   ZZ=            -68.7310
   XY=              7.3644   XZ=              2.0503   YZ=            -10.2554

 Normal termination of Gaussian 09 at Tue Dec 31 09:07:23 2019.
