 Gaussian 09, Revision A.02,
 Gaussian 09:  EM64L-G09RevA.02 11-Jun-2009

 ------------------------------------------------------------------
 #P MP2/6-311++G** SP SCF=(qc,maxcycle=800) Guess=Indo MaxDisk=50GB
 ------------------------------------------------------------------

 --------------------------------------------------------------------
 ModifiedRes Rotatable Bond SP Calculation on bme-nova.bme.utexas.edu
 --------------------------------------------------------------------
 Symbolic Z-matrix:
 Charge =  0 Multiplicity = 1

                         Standard orientation:
 ---------------------------------------------------------------------
 Center     Atomic      Atomic             Coordinates (Angstroms)
 Number     Number       Type             X           Y           Z
 ---------------------------------------------------------------------
      1          7           0        1.546625   -0.996764    0.861924
      2          1           0        1.398562   -1.055360    1.865293
      3          6           0        0.636015   -0.166780    0.046803
      4          1           0        0.756651   -0.499114   -0.992951
      5          6           0        1.046997    1.321232    0.150422
      6          8           0        0.533707    2.054354    0.998853
      7          6           0       -0.825654   -0.375648    0.513324
      8         16           0       -1.981158   -0.163245   -0.904602
      9          6           0       -3.448956   -0.274255   -0.053771
     10          7           0       -4.485326   -0.348170    0.517594
     11          1           0       -0.933199   -1.377769    0.934994
     12          1           0       -1.075818    0.361446    1.280691
     13          6           0        2.734218   -1.450218    0.360700
     14          8           0        3.100309   -1.239845   -0.801015
     15          7           0        2.008413    1.721913   -0.723849
     16          1           0        3.336982   -2.028765    1.078510
     17          1           0        2.507241    1.039376   -1.287238
     18          1           0        2.292283    2.691187   -0.682926
 ---------------------------------------------------------------------

 SCF Done:  E(RHF) =  -904.158061481     a.u. after   11 cycles
 E2 =    -0.1756449812D+01 EUMP2 =    -0.90591451129336D+03

 The electronic state is 1-A.
 Alpha  occ. eigenvalues --  -92.02818 -20.56518 -20.54810 -15.63919 -15.60780
 Alpha  occ. eigenvalues --  -15.59952 -11.39709 -11.38590 -11.33697 -11.31486
 Alpha  occ. eigenvalues --  -11.31096  -9.02946  -6.71204  -6.71023  -6.70863
 Alpha  occ. eigenvalues --   -1.41621  -1.40217  -1.27750  -1.23279  -1.22589
 Alpha  occ. eigenvalues --   -1.12179  -1.03348  -0.91758  -0.87029  -0.81636
 Alpha  occ. eigenvalues --   -0.77048  -0.75132  -0.71960  -0.70534  -0.66854
 Alpha  occ. eigenvalues --   -0.64639  -0.63303  -0.61049  -0.58391  -0.58137
 Alpha  occ. eigenvalues --   -0.57201  -0.56464  -0.53330  -0.51593  -0.47611
 Alpha  occ. eigenvalues --   -0.47286  -0.45495  -0.43515  -0.42526  -0.38981
 Alpha virt. eigenvalues --    0.02498   0.04181   0.04963   0.05558   0.07296
 Alpha virt. eigenvalues --    0.07426   0.08534   0.08764   0.09129   0.10167
 Alpha virt. eigenvalues --    0.11293   0.11936   0.12309   0.12970   0.13252

 Mulliken atomic charges:
              1
     1  N   -0.145562
     2  H    0.341898
     3  C    0.079241
     4  H    0.345693
     5  C    0.040455
     6  O   -0.415866
     7  C   -0.744657
     8  S    0.296223
     9  C   -0.336566
    10  N   -0.176973
    11  H    0.231100
    12  H    0.256481
    13  C    0.298009
    14  O   -0.446112
    15  N   -0.431145
    16  H    0.154810
    17  H    0.305453
    18  H    0.347516
 Sum of Mulliken atomic charges =   0.00000

 Dipole moment (field-independent basis, Debye):
    X=              5.0442    Y=             -1.7388    Z=              0.6305  Tot=              5.3726
 Quadrupole moment (field-independent basis, Debye-Ang):
   XX=            -94.6218   YY=            -73.8323   ZZ=            -70.4026
   XY=              2.1113   XZ=             10.3898   YZ=            -11.7556

 Normal termination of Gaussian 09 at Tue Dec 31 09:03:51 2019.
