 Gaussian 09, Revision A.02,
 Gaussian 09:  EM64L-G09RevA.02 11-Jun-2009

 ---------------------------------------------
 #P opt=(,maxcycle=400) HF/6-31G* MaxDisk=50GB
 ---------------------------------------------

 ------------------------------------------------------------------
 ModifiedRes Rotatable Bond Optimization on bme-nova.bme.utexas.edu
 ------------------------------------------------------------------
 Symbolic Z-matrix:
 Charge =  0 Multiplicity = 1

 SCF Done:  E(RHF) =  -903.978389960     A.U. after   16 cycles
 SCF Done:  E(RHF) =  -903.995137474     A.U. after   15 cycles
 SCF Done:  E(RHF) =  -903.999216671     A.U. after   17 cycles
 SCF Done:  E(RHF) =  -904.000635303     A.U. after   15 cycles
 SCF Done:  E(RHF) =  -904.000167474     A.U. after   14 cycles
 SCF Done:  E(RHF) =  -904.001409434     A.U. after   13 cycles
 SCF Done:  E(RHF) =  -904.001756705     A.U. after   14 cycles
 SCF Done:  E(RHF) =  -904.002006007     A.U. after   16 cycles
 SCF Done:  E(RHF) =  -904.002394761     A.U. after   14 cycles
 SCF Done:  E(RHF) =  -904.002535030     A.U. after   12 cycles
 SCF Done:  E(RHF) =  -904.002454366     A.U. after   16 cycles
 SCF Done:  E(RHF) =  -904.002682091     A.U. after   14 cycles
 SCF Done:  E(RHF) =  -904.002711882     A.U. after   12 cycles
 SCF Done:  E(RHF) =  -904.002719463     A.U. after   12 cycles
 SCF Done:  E(RHF) =  -904.002722375     A.U. after   11 cycles
 SCF Done:  E(RHF) =  -904.002726278     A.U. after   11 cycles
 SCF Done:  E(RHF) =  -904.002727092     A.U. after   10 cycles
 SCF Done:  E(RHF) =  -904.002727383     A.U. after   10 cycles
 SCF Done:  E(RHF) =  -904.002727445     A.U. after    9 cycles
 Optimization completed.
    -- Stationary point found.

                         Standard orientation:
 ---------------------------------------------------------------------
 Center     Atomic      Atomic             Coordinates (Angstroms)
 Number     Number       Type             X           Y           Z
 ---------------------------------------------------------------------
      1          7           0        1.232092    0.889489   -0.277035
      2          1           0        1.660742    0.820976   -1.178333
      3          6           0        0.640291   -0.315652    0.240103
      4          1           0        0.498160   -0.197569    1.307441
      5          6           0        1.552786   -1.511214   -0.058708
      6          8           0        2.127345   -1.581254   -1.106344
      7          6           0       -0.718817   -0.600698   -0.412020
      8         16           0       -1.836999    0.833116   -0.157809
      9          6           0       -3.307156   -0.005414    0.061742
     10          7           0       -4.296133   -0.544861    0.217888
     11          1           0       -0.593956   -0.761963   -1.472793
     12          1           0       -1.177275   -1.476345    0.024052
     13          6           0        1.652657    1.926501    0.498732
     14          8           0        2.328700    2.824478    0.111179
     15          7           0        1.598050   -2.471504    0.884887
     16          1           0        1.286639    1.871003    1.524794
     17          1           0        1.224723   -2.346326    1.796879
     18          1           0        2.187961   -3.258448    0.724949
 ---------------------------------------------------------------------

 The electronic state is 1-A.
 Alpha  occ. eigenvalues --  -92.01661 -20.56432 -20.55031 -15.62406 -15.61324
 Alpha  occ. eigenvalues --  -15.59348 -11.38988 -11.36758 -11.33292 -11.31305
 Alpha  occ. eigenvalues --  -11.30565  -9.02538  -6.70834  -6.70650  -6.70446
 Alpha  occ. eigenvalues --   -1.43548  -1.41434  -1.27637  -1.25526  -1.24776
 Alpha  occ. eigenvalues --   -1.12401  -1.03388  -0.91520  -0.87515  -0.84166
 Alpha  occ. eigenvalues --   -0.78072  -0.73735  -0.71564  -0.68528  -0.68004
 Alpha  occ. eigenvalues --   -0.65763  -0.64288  -0.62755  -0.59496  -0.58427
 Alpha  occ. eigenvalues --   -0.57131  -0.56467  -0.53991  -0.52951  -0.47715
 Alpha  occ. eigenvalues --   -0.46160  -0.45025  -0.44623  -0.41529  -0.39107
 Alpha virt. eigenvalues --    0.11627   0.16274   0.17111   0.18901   0.20551
 Alpha virt. eigenvalues --    0.21006   0.22021   0.23150   0.23355   0.25721
 Alpha virt. eigenvalues --    0.27185   0.28733   0.31203   0.33363   0.37213

 Mulliken atomic charges:
              1
     1  N   -0.754897
     2  H    0.422856
     3  C   -0.085548
     4  H    0.210227
     5  C    0.766207
     6  O   -0.588313
     7  C   -0.500876
     8  S    0.310707
     9  C    0.079815
    10  N   -0.380648
    11  H    0.251539
    12  H    0.240345
    13  C    0.527874
    14  O   -0.540001
    15  N   -0.917282
    16  H    0.148461
    17  H    0.398610
    18  H    0.410922
 Sum of Mulliken atomic charges =   0.00000

 Dipole moment (field-independent basis, Debye):
    X=              1.4688    Y=             -4.0124    Z=              3.3604  Tot=              5.4359
 Quadrupole moment (field-independent basis, Debye-Ang):
   XX=           -100.6329   YY=            -76.3492   ZZ=            -66.6971
   XY=            -13.8357   XZ=              8.5500   YZ=             -5.8517

 Normal termination of Gaussian 09 at Mon Dec 30 09:42:26 2019.
