 Gaussian 09, Revision A.02,
 Gaussian 09:  EM64L-G09RevA.02 11-Jun-2009

 ---------------------------------------------
 #P opt=(,maxcycle=400) HF/6-31G* MaxDisk=50GB
 ---------------------------------------------

 ------------------------------------------------------------------
 ModifiedRes Rotatable Bond Optimization on bme-nova.bme.utexas.edu
 ------------------------------------------------------------------
 Symbolic Z-matrix:
 Charge =  0 Multiplicity = 1

 SCF Done:  E(RHF) =  -903.976505937     A.U. after   16 cycles
 SCF Done:  E(RHF) =  -903.992718828     A.U. after   14 cycles
 SCF Done:  E(RHF) =  -903.995023978     A.U. after   14 cycles
 SCF Done:  E(RHF) =  -903.996230261     A.U. after   17 cycles
 SCF Done:  E(RHF) =  -903.997800689     A.U. after   13 cycles
 SCF Done:  E(RHF) =  -903.999661167     A.U. after   15 cycles
 SCF Done:  E(RHF) =  -904.001259825     A.U. after   17 cycles
 SCF Done:  E(RHF) =  -904.004580342     A.U. after   14 cycles
 SCF Done:  E(RHF) =  -904.007339723     A.U. after   14 cycles
 SCF Done:  E(RHF) =  -904.008606656     A.U. after   17 cycles
 SCF Done:  E(RHF) =  -904.008982159     A.U. after   13 cycles
 SCF Done:  E(RHF) =  -904.009068026     A.U. after   13 cycles
 SCF Done:  E(RHF) =  -904.009219777     A.U. after   13 cycles
 SCF Done:  E(RHF) =  -904.009267561     A.U. after   12 cycles
 SCF Done:  E(RHF) =  -904.009275963     A.U. after   12 cycles
 SCF Done:  E(RHF) =  -904.009277266     A.U. after   11 cycles
 SCF Done:  E(RHF) =  -904.009277888     A.U. after   10 cycles
 SCF Done:  E(RHF) =  -904.009278336     A.U. after   10 cycles
 SCF Done:  E(RHF) =  -904.009278632     A.U. after   10 cycles
 Optimization completed.
    -- Stationary point found.

                         Standard orientation:
 ---------------------------------------------------------------------
 Center     Atomic      Atomic             Coordinates (Angstroms)
 Number     Number       Type             X           Y           Z
 ---------------------------------------------------------------------
      1          7           0        1.166163    1.036447   -0.707704
      2          1           0        1.632046    0.806373   -1.558622
      3          6           0        0.880194   -0.056709    0.183244
      4          1           0        0.906974    0.319889    1.196716
      5          6           0        1.952986   -1.129874   -0.020768
      6          8           0        2.479399   -1.273418   -1.087864
      7          6           0       -0.483702   -0.711233   -0.091275
      8         16           0       -1.847546    0.454318    0.288620
      9          6           0       -3.143436   -0.578412   -0.124308
     10          7           0       -4.018082   -1.254410   -0.392193
     11          1           0       -0.547234   -0.997519   -1.131261
     12          1           0       -0.608815   -1.590574    0.524654
     13          6           0        1.064944    2.326102   -0.321790
     14          8           0        0.631236    2.686577    0.732698
     15          7           0        2.203094   -1.915336    1.044068
     16          1           0        1.415996    3.023419   -1.080275
     17          1           0        1.884108   -1.688935    1.957622
     18          1           0        2.908435   -2.613169    0.954759
 ---------------------------------------------------------------------

 The electronic state is 1-A.
 Alpha  occ. eigenvalues --  -92.00520 -20.56329 -20.55046 -15.61963 -15.61158
 Alpha  occ. eigenvalues --  -15.58439 -11.38819 -11.36708 -11.32118 -11.30432
 Alpha  occ. eigenvalues --  -11.29586  -9.01387  -6.69680  -6.69497  -6.69279
 Alpha  occ. eigenvalues --   -1.43397  -1.41399  -1.27013  -1.25237  -1.23863
 Alpha  occ. eigenvalues --   -1.11754  -1.03079  -0.91160  -0.86298  -0.82134
 Alpha  occ. eigenvalues --   -0.78960  -0.74202  -0.70701  -0.68770  -0.67267
 Alpha  occ. eigenvalues --   -0.65487  -0.63384  -0.62336  -0.59432  -0.58382
 Alpha  occ. eigenvalues --   -0.56091  -0.55461  -0.53056  -0.51870  -0.47184
 Alpha  occ. eigenvalues --   -0.45320  -0.44851  -0.44469  -0.41479  -0.38231
 Alpha virt. eigenvalues --    0.12323   0.17778   0.18371   0.19055   0.20910
 Alpha virt. eigenvalues --    0.21868   0.23136   0.23338   0.24529   0.25577
 Alpha virt. eigenvalues --    0.28792   0.29322   0.31105   0.35716   0.38038

 Mulliken atomic charges:
              1
     1  N   -0.764991
     2  H    0.422608
     3  C   -0.084013
     4  H    0.247318
     5  C    0.760514
     6  O   -0.597730
     7  C   -0.492042
     8  S    0.324620
     9  C    0.075017
    10  N   -0.385037
    11  H    0.243119
    12  H    0.230529
    13  C    0.518568
    14  O   -0.567244
    15  N   -0.914454
    16  H    0.173009
    17  H    0.401078
    18  H    0.409131
 Sum of Mulliken atomic charges =   0.00000

 Dipole moment (field-independent basis, Debye):
    X=              4.9164    Y=             -1.3237    Z=              1.2918  Tot=              5.2528
 Quadrupole moment (field-independent basis, Debye-Ang):
   XX=            -87.6206   YY=            -74.8845   ZZ=            -68.1036
   XY=             -6.8780   XZ=              3.7625   YZ=            -14.4525

 Normal termination of Gaussian 09 at Mon Dec 30 10:03:10 2019.
