 Gaussian 09, Revision A.02,
 Gaussian 09:  EM64L-G09RevA.02 11-Jun-2009

 ------------------------------------------------------------------
 #P MP2/6-311++G** SP SCF=(qc,maxcycle=800) Guess=Indo MaxDisk=50GB
 ------------------------------------------------------------------

 --------------------------------------------------------------------
 ModifiedRes Rotatable Bond SP Calculation on bme-nova.bme.utexas.edu
 --------------------------------------------------------------------
 Symbolic Z-matrix:
 Charge =  0 Multiplicity = 1

                         Standard orientation:
 ---------------------------------------------------------------------
 Center     Atomic      Atomic             Coordinates (Angstroms)
 Number     Number       Type             X           Y           Z
 ---------------------------------------------------------------------
      1          7           0       -1.778832   -0.643273   -0.939809
      2          1           0       -1.810414   -0.481505   -1.942135
      3          6           0       -0.551292   -0.310344   -0.184751
      4          1           0       -0.569122   -0.893461    0.746335
      5          6           0       -0.564035    1.201944    0.163000
      6          8           0        0.052943    2.025794   -0.513528
      7          6           0        0.698649   -0.714932   -1.018876
      8         16           0        2.279019    0.208133   -0.713931
      9          6           0        2.744703   -0.620578    0.696914
     10          7           0        3.034061   -1.185459    1.699123
     11          1           0        0.918537   -1.771404   -0.840241
     12          1           0        0.468102   -0.562908   -2.076121
     13          6           0       -2.954712   -0.937623   -0.309228
     14          8           0       -3.076255   -0.965501    0.920338
     15          7           0       -1.324966    1.539965    1.238714
     16          1           0       -3.790615   -1.155194   -0.992983
     17          1           0       -1.902071    0.846267    1.705752
     18          1           0       -1.343947    2.516297    1.499263
 ---------------------------------------------------------------------

 SCF Done:  E(RHF) =  -904.151191890     a.u. after   11 cycles
 E2 =    -0.1759330717D+01 EUMP2 =    -0.90591052260742D+03

 The electronic state is 1-A.
 Alpha  occ. eigenvalues --  -92.02064 -20.56314 -20.54061 -15.63818 -15.59852
 Alpha  occ. eigenvalues --  -15.59292 -11.39517 -11.37938 -11.33269 -11.31797
 Alpha  occ. eigenvalues --  -11.30919  -9.02154  -6.70382  -6.70203  -6.70049
 Alpha  occ. eigenvalues --   -1.41389  -1.39746  -1.27539  -1.22411  -1.22100
 Alpha  occ. eigenvalues --   -1.11465  -1.02813  -0.91893  -0.86622  -0.81142
 Alpha  occ. eigenvalues --   -0.76796  -0.74869  -0.71082  -0.69084  -0.67190
 Alpha  occ. eigenvalues --   -0.63612  -0.62478  -0.62167  -0.57933  -0.57653
 Alpha  occ. eigenvalues --   -0.56579  -0.56253  -0.53023  -0.51433  -0.47298
 Alpha  occ. eigenvalues --   -0.46996  -0.44898  -0.42939  -0.42435  -0.37453
 Alpha virt. eigenvalues --    0.02273   0.04499   0.04891   0.05536   0.07140
 Alpha virt. eigenvalues --    0.07914   0.08180   0.08896   0.09648   0.10707
 Alpha virt. eigenvalues --    0.11500   0.12002   0.12492   0.12710   0.13451

 Mulliken atomic charges:
              1
     1  N   -0.104614
     2  H    0.335328
     3  C   -0.421276
     4  H    0.330503
     5  C   -0.034162
     6  O   -0.353676
     7  C   -0.546098
     8  S    0.771423
     9  C   -0.450744
    10  N   -0.174132
    11  H    0.226641
    12  H    0.197737
    13  C    0.305111
    14  O   -0.448442
    15  N   -0.445310
    16  H    0.153851
    17  H    0.313170
    18  H    0.344691
 Sum of Mulliken atomic charges =   0.00000

 Dipole moment (field-independent basis, Debye):
    X=             -4.0619    Y=             -0.5427    Z=             -4.4674  Tot=              6.0622
 Quadrupole moment (field-independent basis, Debye-Ang):
   XX=            -80.3001   YY=            -77.5564   ZZ=            -71.2420
   XY=              0.5592   XZ=              0.9184   YZ=             12.9118

 Normal termination of Gaussian 09 at Tue Dec 31 09:03:50 2019.
