 Gaussian 09, Revision A.02,
 Gaussian 09:  EM64L-G09RevA.02 11-Jun-2009

 ---------------------------------------------
 #P opt=(,maxcycle=400) HF/6-31G* MaxDisk=50GB
 ---------------------------------------------

 ------------------------------------------------------------------
 ModifiedRes Rotatable Bond Optimization on bme-nova.bme.utexas.edu
 ------------------------------------------------------------------
 Symbolic Z-matrix:
 Charge =  0 Multiplicity = 1

 SCF Done:  E(RHF) =  -903.971276928     A.U. after   16 cycles
 SCF Done:  E(RHF) =  -903.989996536     A.U. after   15 cycles
 SCF Done:  E(RHF) =  -904.001681846     A.U. after   15 cycles
 SCF Done:  E(RHF) =  -904.006357241     A.U. after   16 cycles
 SCF Done:  E(RHF) =  -904.010738458     A.U. after   13 cycles
 SCF Done:  E(RHF) =  -904.011028242     A.U. after   13 cycles
 SCF Done:  E(RHF) =  -904.011231979     A.U. after   14 cycles
 SCF Done:  E(RHF) =  -904.011390620     A.U. after   13 cycles
 SCF Done:  E(RHF) =  -904.011434349     A.U. after   12 cycles
 SCF Done:  E(RHF) =  -904.011452825     A.U. after   12 cycles
 SCF Done:  E(RHF) =  -904.011468620     A.U. after   11 cycles
 SCF Done:  E(RHF) =  -904.011477712     A.U. after   12 cycles
 SCF Done:  E(RHF) =  -904.011480448     A.U. after   11 cycles
 SCF Done:  E(RHF) =  -904.011481021     A.U. after   10 cycles
 SCF Done:  E(RHF) =  -904.011481286     A.U. after   10 cycles
 SCF Done:  E(RHF) =  -904.011481469     A.U. after   10 cycles
 Optimization completed.
    -- Stationary point found.

                         Standard orientation:
 ---------------------------------------------------------------------
 Center     Atomic      Atomic             Coordinates (Angstroms)
 Number     Number       Type             X           Y           Z
 ---------------------------------------------------------------------
      1          7           0        0.972491   -0.886186    0.757830
      2          1           0        0.596038   -0.860337    1.680036
      3          6           0        0.605275    0.165725   -0.176094
      4          1           0        0.717013   -0.245089   -1.170143
      5          6           0        1.544592    1.374258   -0.029497
      6          8           0        1.191669    2.377892    0.522908
      7          6           0       -0.834603    0.614249    0.043800
      8         16           0       -1.956325   -0.821155   -0.177386
      9          6           0       -3.448474    0.002081   -0.101984
     10          7           0       -4.455844    0.527350   -0.053077
     11          1           0       -0.966829    1.028980    1.030923
     12          1           0       -1.092366    1.372229   -0.678906
     13          6           0        1.914680   -1.809076    0.474561
     14          8           0        2.537995   -1.849465   -0.547726
     15          7           0        2.763514    1.195402   -0.566753
     16          1           0        2.058296   -2.533973    1.272916
     17          1           0        3.054834    0.305232   -0.908266
     18          1           0        3.446956    1.904628   -0.420558
 ---------------------------------------------------------------------

 The electronic state is 1-A.
 Alpha  occ. eigenvalues --  -92.01091 -20.56943 -20.54873 -15.63317 -15.59692
 Alpha  occ. eigenvalues --  -15.58908 -11.38514 -11.37293 -11.32195 -11.30403
 Alpha  occ. eigenvalues --  -11.30073  -9.01999  -6.70308  -6.70118  -6.69914
 Alpha  occ. eigenvalues --   -1.43377  -1.41612  -1.28586  -1.24300  -1.23196
 Alpha  occ. eigenvalues --   -1.12244  -1.03305  -0.91359  -0.87052  -0.81771
 Alpha  occ. eigenvalues --   -0.76977  -0.75840  -0.71458  -0.69981  -0.67175
 Alpha  occ. eigenvalues --   -0.64517  -0.62832  -0.62083  -0.58995  -0.58406
 Alpha  occ. eigenvalues --   -0.57100  -0.56109  -0.53406  -0.52340  -0.47400
 Alpha  occ. eigenvalues --   -0.46509  -0.46143  -0.42869  -0.41763  -0.38698
 Alpha virt. eigenvalues --    0.12893   0.15868   0.17635   0.19444   0.20872
 Alpha virt. eigenvalues --    0.21180   0.22429   0.23473   0.24297   0.27397
 Alpha virt. eigenvalues --    0.28398   0.29670   0.32294   0.34509   0.37792

 Mulliken atomic charges:
              1
     1  N   -0.768377
     2  H    0.406903
     3  C   -0.100387
     4  H    0.253925
     5  C    0.775505
     6  O   -0.596784
     7  C   -0.492767
     8  S    0.285947
     9  C    0.084634
    10  N   -0.376506
    11  H    0.246074
    12  H    0.252402
    13  C    0.521809
    14  O   -0.579175
    15  N   -0.934294
    16  H    0.182745
    17  H    0.438942
    18  H    0.399404
 Sum of Mulliken atomic charges =   0.00000

 Dipole moment (field-independent basis, Debye):
    X=              4.1267    Y=             -2.0511    Z=              1.5077  Tot=              4.8487
 Quadrupole moment (field-independent basis, Debye-Ang):
   XX=            -89.2588   YY=            -79.2492   ZZ=            -67.5863
   XY=              6.4338   XZ=              2.5775   YZ=             -8.6400

 Normal termination of Gaussian 09 at Mon Dec 30 09:39:11 2019.
