 Gaussian 09, Revision A.02,
 Gaussian 09:  EM64L-G09RevA.02 11-Jun-2009

 ---------------------------------------------
 #P opt=(,maxcycle=400) HF/6-31G* MaxDisk=50GB
 ---------------------------------------------

 ------------------------------------------------------------------
 ModifiedRes Rotatable Bond Optimization on bme-nova.bme.utexas.edu
 ------------------------------------------------------------------
 Symbolic Z-matrix:
 Charge =  0 Multiplicity = 1

 SCF Done:  E(RHF) =  -903.997356064     A.U. after   16 cycles
 SCF Done:  E(RHF) =  -904.011940039     A.U. after   14 cycles
 SCF Done:  E(RHF) =  -904.013439716     A.U. after   16 cycles
 SCF Done:  E(RHF) =  -904.013449695     A.U. after   14 cycles
 SCF Done:  E(RHF) =  -904.013775119     A.U. after   13 cycles
 SCF Done:  E(RHF) =  -904.013796158     A.U. after   13 cycles
 SCF Done:  E(RHF) =  -904.013886049     A.U. after   12 cycles
 SCF Done:  E(RHF) =  -904.013902261     A.U. after   12 cycles
 SCF Done:  E(RHF) =  -904.013911192     A.U. after   11 cycles
 SCF Done:  E(RHF) =  -904.013911389     A.U. after   11 cycles
 SCF Done:  E(RHF) =  -904.013914142     A.U. after   11 cycles
 SCF Done:  E(RHF) =  -904.013913806     A.U. after   10 cycles
 SCF Done:  E(RHF) =  -904.013914682     A.U. after   10 cycles
 Optimization completed.
    -- Stationary point found.

                         Standard orientation:
 ---------------------------------------------------------------------
 Center     Atomic      Atomic             Coordinates (Angstroms)
 Number     Number       Type             X           Y           Z
 ---------------------------------------------------------------------
      1          7           0       -0.310792    0.911966    0.498218
      2          1           0        0.265521    0.862716    1.309126
      3          6           0       -0.571269   -0.295231   -0.264256
      4          1           0       -0.707025    0.006524   -1.293835
      5          6           0       -1.860347   -0.979400    0.220798
      6          8           0       -1.829341   -2.007045    0.839525
      7          6           0        0.586409   -1.284025   -0.165451
      8         16           0        2.152069   -0.693997   -0.908802
      9          6           0        2.756635    0.251659    0.376987
     10          7           0        3.160139    0.881058    1.234698
     11          1           0        0.768673   -1.589907    0.853108
     12          1           0        0.343399   -2.176546   -0.723395
     13          6           0       -0.823401    2.108185    0.151915
     14          8           0       -1.589482    2.280651   -0.754884
     15          7           0       -2.990337   -0.336137   -0.116871
     16          1           0       -0.476091    2.922610    0.783329
     17          1           0       -2.967053    0.565673   -0.541921
     18          1           0       -3.851194   -0.681307    0.245029
 ---------------------------------------------------------------------

 The electronic state is 1-A.
 Alpha  occ. eigenvalues --  -92.01535 -20.56119 -20.54468 -15.62386 -15.59763
 Alpha  occ. eigenvalues --  -15.59211 -11.37665 -11.36827 -11.31557 -11.31116
 Alpha  occ. eigenvalues --  -11.30690  -9.02437  -6.70745  -6.70548  -6.70352
 Alpha  occ. eigenvalues --   -1.42551  -1.41138  -1.27860  -1.25268  -1.22717
 Alpha  occ. eigenvalues --   -1.12306  -1.03232  -0.91699  -0.86307  -0.81117
 Alpha  occ. eigenvalues --   -0.76714  -0.75219  -0.71341  -0.69127  -0.67531
 Alpha  occ. eigenvalues --   -0.63663  -0.63430  -0.60086  -0.59475  -0.58280
 Alpha  occ. eigenvalues --   -0.57135  -0.56460  -0.53931  -0.53148  -0.47097
 Alpha  occ. eigenvalues --   -0.46725  -0.45577  -0.42395  -0.41374  -0.39100
 Alpha virt. eigenvalues --    0.12160   0.16243   0.18114   0.19356   0.20563
 Alpha virt. eigenvalues --    0.21744   0.22687   0.24326   0.25125   0.27289
 Alpha virt. eigenvalues --    0.29339   0.29546   0.32328   0.33673   0.37091

 Mulliken atomic charges:
              1
     1  N   -0.771030
     2  H    0.414039
     3  C   -0.064772
     4  H    0.249119
     5  C    0.771422
     6  O   -0.603363
     7  C   -0.521085
     8  S    0.295758
     9  C    0.098937
    10  N   -0.398003
    11  H    0.254115
    12  H    0.251740
    13  C    0.520589
    14  O   -0.587265
    15  N   -0.936667
    16  H    0.186951
    17  H    0.441586
    18  H    0.397931
 Sum of Mulliken atomic charges =   0.00000

 Dipole moment (field-independent basis, Debye):
    X=             -1.4424    Y=             -0.2236    Z=             -0.6326  Tot=              1.5908
 Quadrupole moment (field-independent basis, Debye-Ang):
   XX=            -76.6814   YY=            -78.6781   ZZ=            -73.3807
   XY=             -4.9400   XZ=             -5.2763   YZ=              7.7315

 Normal termination of Gaussian 09 at Tue Dec 31 09:06:58 2019.
