 Gaussian 09, Revision A.02,
 Gaussian 09:  EM64L-G09RevA.02 11-Jun-2009

 ---------------------------------------------
 #P opt=(,maxcycle=400) HF/6-31G* MaxDisk=50GB
 ---------------------------------------------

 ------------------------------------------------------------------
 ModifiedRes Rotatable Bond Optimization on bme-nova.bme.utexas.edu
 ------------------------------------------------------------------
 Symbolic Z-matrix:
 Charge =  0 Multiplicity = 1

 SCF Done:  E(RHF) =  -903.965052694     A.U. after   16 cycles
 SCF Done:  E(RHF) =  -903.983888577     A.U. after   14 cycles
 SCF Done:  E(RHF) =  -903.996116140     A.U. after   15 cycles
 SCF Done:  E(RHF) =  -904.005444210     A.U. after   15 cycles
 SCF Done:  E(RHF) =  -904.008894067     A.U. after   15 cycles
 SCF Done:  E(RHF) =  -904.008789253     A.U. after   13 cycles
 SCF Done:  E(RHF) =  -904.010913077     A.U. after   14 cycles
 SCF Done:  E(RHF) =  -904.010877047     A.U. after   13 cycles
 SCF Done:  E(RHF) =  -904.011370769     A.U. after   13 cycles
 SCF Done:  E(RHF) =  -904.011420843     A.U. after   13 cycles
 SCF Done:  E(RHF) =  -904.011455940     A.U. after   12 cycles
 SCF Done:  E(RHF) =  -904.011474479     A.U. after   11 cycles
 SCF Done:  E(RHF) =  -904.011479266     A.U. after   11 cycles
 SCF Done:  E(RHF) =  -904.011480475     A.U. after   11 cycles
 SCF Done:  E(RHF) =  -904.011480989     A.U. after   10 cycles
 SCF Done:  E(RHF) =  -904.011481262     A.U. after   10 cycles
 SCF Done:  E(RHF) =  -904.011481420     A.U. after    9 cycles
 SCF Done:  E(RHF) =  -904.011481514     A.U. after    9 cycles
 Optimization completed.
    -- Stationary point found.

                         Standard orientation:
 ---------------------------------------------------------------------
 Center     Atomic      Atomic             Coordinates (Angstroms)
 Number     Number       Type             X           Y           Z
 ---------------------------------------------------------------------
      1          7           0        0.972525   -0.886521    0.757629
      2          1           0        0.596560   -0.860379    1.680016
      3          6           0        0.605130    0.165485   -0.176198
      4          1           0        0.716566   -0.245272   -1.170296
      5          6           0        1.544297    1.374170   -0.029470
      6          8           0        1.191300    2.377379    0.523664
      7          6           0       -0.834704    0.613918    0.044060
      8         16           0       -1.956472   -0.821383   -0.177295
      9          6           0       -3.448553    0.002042   -0.102094
     10          7           0       -4.455957    0.527276   -0.053353
     11          1           0       -0.966720    1.028493    1.031266
     12          1           0       -1.092640    1.372084   -0.678397
     13          6           0        1.915596   -1.808568    0.474592
     14          8           0        2.538906   -1.848741   -0.547712
     15          7           0        2.762993    1.195984   -0.567336
     16          1           0        2.060006   -2.532995    1.273228
     17          1           0        3.054545    0.305987   -0.909063
     18          1           0        3.446059    1.905653   -0.421571
 ---------------------------------------------------------------------

 The electronic state is 1-A.
 Alpha  occ. eigenvalues --  -92.01090 -20.56943 -20.54873 -15.63317 -15.59693
 Alpha  occ. eigenvalues --  -15.58907 -11.38514 -11.37293 -11.32195 -11.30401
 Alpha  occ. eigenvalues --  -11.30072  -9.01998  -6.70307  -6.70117  -6.69913
 Alpha  occ. eigenvalues --   -1.43376  -1.41613  -1.28586  -1.24299  -1.23199
 Alpha  occ. eigenvalues --   -1.12245  -1.03304  -0.91357  -0.87052  -0.81772
 Alpha  occ. eigenvalues --   -0.76977  -0.75842  -0.71458  -0.69981  -0.67175
 Alpha  occ. eigenvalues --   -0.64516  -0.62830  -0.62084  -0.58994  -0.58406
 Alpha  occ. eigenvalues --   -0.57101  -0.56108  -0.53406  -0.52338  -0.47401
 Alpha  occ. eigenvalues --   -0.46508  -0.46142  -0.42870  -0.41764  -0.38696
 Alpha virt. eigenvalues --    0.12893   0.15867   0.17635   0.19444   0.20874
 Alpha virt. eigenvalues --    0.21182   0.22431   0.23473   0.24297   0.27396
 Alpha virt. eigenvalues --    0.28397   0.29669   0.32295   0.34511   0.37789

 Mulliken atomic charges:
              1
     1  N   -0.768354
     2  H    0.406893
     3  C   -0.100358
     4  H    0.253910
     5  C    0.775450
     6  O   -0.596803
     7  C   -0.492794
     8  S    0.285998
     9  C    0.084631
    10  N   -0.376525
    11  H    0.246083
    12  H    0.252390
    13  C    0.521823
    14  O   -0.579188
    15  N   -0.934264
    16  H    0.182731
    17  H    0.438963
    18  H    0.399413
 Sum of Mulliken atomic charges =   0.00000

 Dipole moment (field-independent basis, Debye):
    X=              4.1284    Y=             -2.0490    Z=              1.5058  Tot=              4.8487
 Quadrupole moment (field-independent basis, Debye-Ang):
   XX=            -89.2637   YY=            -79.2419   ZZ=            -67.5856
   XY=              6.4374   XZ=              2.5741   YZ=             -8.6433

 Normal termination of Gaussian 09 at Mon Dec 30 09:45:28 2019.
