 Gaussian 09, Revision A.02,
 Gaussian 09:  EM64L-G09RevA.02 11-Jun-2009

 ---------------------------------------------
 #P opt=(,maxcycle=400) HF/6-31G* MaxDisk=50GB
 ---------------------------------------------

 ------------------------------------------------------------------
 ModifiedRes Rotatable Bond Optimization on bme-nova.bme.utexas.edu
 ------------------------------------------------------------------
 Symbolic Z-matrix:
 Charge =  0 Multiplicity = 1

 SCF Done:  E(RHF) =  -903.995897537     A.U. after   16 cycles
 SCF Done:  E(RHF) =  -904.009955504     A.U. after   14 cycles
 SCF Done:  E(RHF) =  -904.010934135     A.U. after   15 cycles
 SCF Done:  E(RHF) =  -904.010762605     A.U. after   14 cycles
 SCF Done:  E(RHF) =  -904.011071625     A.U. after   13 cycles
 SCF Done:  E(RHF) =  -904.011419766     A.U. after   13 cycles
 SCF Done:  E(RHF) =  -904.011402130     A.U. after   13 cycles
 SCF Done:  E(RHF) =  -904.011449294     A.U. after   12 cycles
 SCF Done:  E(RHF) =  -904.011461792     A.U. after   12 cycles
 SCF Done:  E(RHF) =  -904.011477340     A.U. after   12 cycles
 SCF Done:  E(RHF) =  -904.011480083     A.U. after   11 cycles
 SCF Done:  E(RHF) =  -904.011480615     A.U. after   10 cycles
 SCF Done:  E(RHF) =  -904.011480975     A.U. after    9 cycles
 SCF Done:  E(RHF) =  -904.011481433     A.U. after   11 cycles
 SCF Done:  E(RHF) =  -904.011481520     A.U. after    9 cycles
 Optimization completed.
    -- Stationary point found.

                         Standard orientation:
 ---------------------------------------------------------------------
 Center     Atomic      Atomic             Coordinates (Angstroms)
 Number     Number       Type             X           Y           Z
 ---------------------------------------------------------------------
      1          7           0        0.972444   -0.886566    0.757456
      2          1           0        0.596381   -0.860562    1.679810
      3          6           0        0.605095    0.165526   -0.176216
      4          1           0        0.716515   -0.245099   -1.170381
      5          6           0        1.544242    1.374238   -0.029449
      6          8           0        1.191206    2.377514    0.523494
      7          6           0       -0.834729    0.613920    0.044145
      8         16           0       -1.956441   -0.821434   -0.177095
      9          6           0       -3.448542    0.001994   -0.102159
     10          7           0       -4.455937    0.527259   -0.053577
     11          1           0       -0.966692    1.028479    1.031374
     12          1           0       -1.092757    1.372092   -0.678268
     13          6           0        1.915611   -1.808559    0.474461
     14          8           0        2.539082   -1.848677   -0.547739
     15          7           0        2.763016    1.195929   -0.567141
     16          1           0        2.059835   -2.533085    1.273041
     17          1           0        3.054558    0.305877   -0.908743
     18          1           0        3.446188    1.905464   -0.421216
 ---------------------------------------------------------------------

 The electronic state is 1-A.
 Alpha  occ. eigenvalues --  -92.01090 -20.56944 -20.54873 -15.63317 -15.59692
 Alpha  occ. eigenvalues --  -15.58907 -11.38515 -11.37293 -11.32195 -11.30401
 Alpha  occ. eigenvalues --  -11.30072  -9.01998  -6.70307  -6.70117  -6.69913
 Alpha  occ. eigenvalues --   -1.43377  -1.41614  -1.28587  -1.24299  -1.23198
 Alpha  occ. eigenvalues --   -1.12245  -1.03304  -0.91357  -0.87053  -0.81771
 Alpha  occ. eigenvalues --   -0.76977  -0.75842  -0.71458  -0.69982  -0.67175
 Alpha  occ. eigenvalues --   -0.64517  -0.62830  -0.62085  -0.58995  -0.58407
 Alpha  occ. eigenvalues --   -0.57101  -0.56108  -0.53406  -0.52338  -0.47402
 Alpha  occ. eigenvalues --   -0.46509  -0.46143  -0.42870  -0.41763  -0.38697
 Alpha virt. eigenvalues --    0.12894   0.15867   0.17634   0.19443   0.20875
 Alpha virt. eigenvalues --    0.21182   0.22431   0.23473   0.24298   0.27396
 Alpha virt. eigenvalues --    0.28398   0.29670   0.32296   0.34511   0.37790

 Mulliken atomic charges:
              1
     1  N   -0.768369
     2  H    0.406894
     3  C   -0.100355
     4  H    0.253905
     5  C    0.775450
     6  O   -0.596776
     7  C   -0.492808
     8  S    0.285999
     9  C    0.084628
    10  N   -0.376525
    11  H    0.246076
    12  H    0.252402
    13  C    0.521830
    14  O   -0.579169
    15  N   -0.934286
    16  H    0.182729
    17  H    0.438972
    18  H    0.399404
 Sum of Mulliken atomic charges =   0.00000

 Dipole moment (field-independent basis, Debye):
    X=              4.1280    Y=             -2.0497    Z=              1.5069  Tot=              4.8490
 Quadrupole moment (field-independent basis, Debye-Ang):
   XX=            -89.2649   YY=            -79.2425   ZZ=            -67.5868
   XY=              6.4367   XZ=              2.5750   YZ=             -8.6409

 Normal termination of Gaussian 09 at Mon Dec 30 09:50:56 2019.
