 Gaussian 09, Revision A.02,
 Gaussian 09:  EM64L-G09RevA.02 11-Jun-2009

 ---------------------------------------------
 #P opt=(,maxcycle=400) HF/6-31G* MaxDisk=50GB
 ---------------------------------------------

 ------------------------------------------------------------------
 ModifiedRes Rotatable Bond Optimization on bme-nova.bme.utexas.edu
 ------------------------------------------------------------------
 Symbolic Z-matrix:
 Charge =  0 Multiplicity = 1

 SCF Done:  E(RHF) =  -903.952417305     A.U. after   16 cycles
 SCF Done:  E(RHF) =  -903.970304002     A.U. after   14 cycles
 SCF Done:  E(RHF) =  -903.974607834     A.U. after   15 cycles
 SCF Done:  E(RHF) =  -903.980807866     A.U. after   16 cycles
 SCF Done:  E(RHF) =  -903.985795092     A.U. after   16 cycles
 SCF Done:  E(RHF) =  -903.994530480     A.U. after   15 cycles
 SCF Done:  E(RHF) =  -904.002143523     A.U. after   14 cycles
 SCF Done:  E(RHF) =  -904.006720024     A.U. after   14 cycles
 SCF Done:  E(RHF) =  -904.008895634     A.U. after   14 cycles
 SCF Done:  E(RHF) =  -904.009943686     A.U. after   14 cycles
 SCF Done:  E(RHF) =  -904.011286110     A.U. after   13 cycles
 SCF Done:  E(RHF) =  -904.011370373     A.U. after   13 cycles
 SCF Done:  E(RHF) =  -904.011413517     A.U. after   12 cycles
 SCF Done:  E(RHF) =  -904.011438851     A.U. after   12 cycles
 SCF Done:  E(RHF) =  -904.011462430     A.U. after   12 cycles
 SCF Done:  E(RHF) =  -904.011471211     A.U. after   12 cycles
 SCF Done:  E(RHF) =  -904.011479483     A.U. after   12 cycles
 SCF Done:  E(RHF) =  -904.011481220     A.U. after   10 cycles
 SCF Done:  E(RHF) =  -904.011481497     A.U. after   10 cycles
 SCF Done:  E(RHF) =  -904.011481523     A.U. after    9 cycles
 Optimization completed.
    -- Stationary point found.

                         Standard orientation:
 ---------------------------------------------------------------------
 Center     Atomic      Atomic             Coordinates (Angstroms)
 Number     Number       Type             X           Y           Z
 ---------------------------------------------------------------------
      1          7           0        0.972457   -0.886558    0.757503
      2          1           0        0.596560   -0.860416    1.679916
      3          6           0        0.605116    0.165528   -0.176165
      4          1           0        0.716539   -0.245092   -1.170332
      5          6           0        1.544305    1.374224   -0.029478
      6          8           0        1.191277    2.377605    0.523282
      7          6           0       -0.834725    0.613946    0.044122
      8         16           0       -1.956469   -0.821376   -0.177219
      9          6           0       -3.448544    0.002074   -0.102091
     10          7           0       -4.456008    0.527195   -0.053399
     11          1           0       -0.966748    1.028469    1.031352
     12          1           0       -1.092708    1.372132   -0.678284
     13          6           0        1.915535   -1.808608    0.474489
     14          8           0        2.538961   -1.848732   -0.547738
     15          7           0        2.763143    1.195801   -0.566996
     16          1           0        2.059724   -2.533187    1.273025
     17          1           0        3.054671    0.305715   -0.908506
     18          1           0        3.446285    1.905356   -0.421035
 ---------------------------------------------------------------------

 The electronic state is 1-A.
 Alpha  occ. eigenvalues --  -92.01090 -20.56944 -20.54873 -15.63317 -15.59692
 Alpha  occ. eigenvalues --  -15.58907 -11.38515 -11.37293 -11.32195 -11.30401
 Alpha  occ. eigenvalues --  -11.30072  -9.01998  -6.70307  -6.70117  -6.69913
 Alpha  occ. eigenvalues --   -1.43378  -1.41614  -1.28588  -1.24299  -1.23198
 Alpha  occ. eigenvalues --   -1.12245  -1.03304  -0.91357  -0.87053  -0.81771
 Alpha  occ. eigenvalues --   -0.76977  -0.75843  -0.71458  -0.69982  -0.67175
 Alpha  occ. eigenvalues --   -0.64517  -0.62831  -0.62085  -0.58995  -0.58407
 Alpha  occ. eigenvalues --   -0.57100  -0.56108  -0.53406  -0.52338  -0.47402
 Alpha  occ. eigenvalues --   -0.46509  -0.46143  -0.42869  -0.41763  -0.38697
 Alpha virt. eigenvalues --    0.12893   0.15867   0.17635   0.19444   0.20875
 Alpha virt. eigenvalues --    0.21182   0.22430   0.23472   0.24298   0.27396
 Alpha virt. eigenvalues --    0.28398   0.29670   0.32296   0.34511   0.37790

 Mulliken atomic charges:
              1
     1  N   -0.768343
     2  H    0.406889
     3  C   -0.100367
     4  H    0.253908
     5  C    0.775430
     6  O   -0.596776
     7  C   -0.492791
     8  S    0.286005
     9  C    0.084630
    10  N   -0.376528
    11  H    0.246064
    12  H    0.252404
    13  C    0.521814
    14  O   -0.579173
    15  N   -0.934285
    16  H    0.182737
    17  H    0.438977
    18  H    0.399405
 Sum of Mulliken atomic charges =   0.00000

 Dipole moment (field-independent basis, Debye):
    X=              4.1283    Y=             -2.0498    Z=              1.5075  Tot=              4.8495
 Quadrupole moment (field-independent basis, Debye-Ang):
   XX=            -89.2652   YY=            -79.2437   ZZ=            -67.5860
   XY=              6.4348   XZ=              2.5779   YZ=             -8.6399

 Normal termination of Gaussian 09 at Mon Dec 30 09:40:14 2019.
