 Gaussian 09, Revision A.02,
 Gaussian 09:  EM64L-G09RevA.02 11-Jun-2009

 ---------------------------------------------
 #P opt=(,maxcycle=400) HF/6-31G* MaxDisk=50GB
 ---------------------------------------------

 ------------------------------------------------------------------
 ModifiedRes Rotatable Bond Optimization on bme-nova.bme.utexas.edu
 ------------------------------------------------------------------
 Symbolic Z-matrix:
 Charge =  0 Multiplicity = 1

 SCF Done:  E(RHF) =  -903.992499985     A.U. after   16 cycles
 SCF Done:  E(RHF) =  -904.006690696     A.U. after   14 cycles
 SCF Done:  E(RHF) =  -904.008838803     A.U. after   15 cycles
 SCF Done:  E(RHF) =  -904.009480190     A.U. after   17 cycles
 SCF Done:  E(RHF) =  -904.010134385     A.U. after   13 cycles
 SCF Done:  E(RHF) =  -904.010553016     A.U. after   13 cycles
 SCF Done:  E(RHF) =  -904.011380880     A.U. after   13 cycles
 SCF Done:  E(RHF) =  -904.011339434     A.U. after   13 cycles
 SCF Done:  E(RHF) =  -904.011378100     A.U. after   12 cycles
 SCF Done:  E(RHF) =  -904.011475337     A.U. after   12 cycles
 SCF Done:  E(RHF) =  -904.011477590     A.U. after   10 cycles
 SCF Done:  E(RHF) =  -904.011480554     A.U. after   11 cycles
 SCF Done:  E(RHF) =  -904.011481215     A.U. after   10 cycles
 SCF Done:  E(RHF) =  -904.011481351     A.U. after    9 cycles
 SCF Done:  E(RHF) =  -904.011481443     A.U. after    8 cycles
 SCF Done:  E(RHF) =  -904.011481503     A.U. after    9 cycles
 Optimization completed.
    -- Stationary point found.

                         Standard orientation:
 ---------------------------------------------------------------------
 Center     Atomic      Atomic             Coordinates (Angstroms)
 Number     Number       Type             X           Y           Z
 ---------------------------------------------------------------------
      1          7           0        0.972663   -0.886497    0.757664
      2          1           0        0.596277   -0.860905    1.679893
      3          6           0        0.605172    0.165532   -0.175952
      4          1           0        0.716584   -0.245038   -1.170152
      5          6           0        1.544201    1.374357   -0.029451
      6          8           0        1.191056    2.377867    0.522996
      7          6           0       -0.834659    0.613849    0.044480
      8         16           0       -1.956393   -0.821399   -0.177470
      9          6           0       -3.448464    0.002033   -0.102127
     10          7           0       -4.455901    0.527201   -0.053284
     11          1           0       -0.966677    1.027995    1.031877
     12          1           0       -1.092601    1.372308   -0.677652
     13          6           0        1.915434   -1.808815    0.474450
     14          8           0        2.538904   -1.848865   -0.547744
     15          7           0        2.763066    1.195946   -0.566987
     16          1           0        2.059211   -2.533693    1.272790
     17          1           0        3.054767    0.305806   -0.908227
     18          1           0        3.446143    1.905596   -0.421158
 ---------------------------------------------------------------------

 The electronic state is 1-A.
 Alpha  occ. eigenvalues --  -92.01091 -20.56944 -20.54873 -15.63317 -15.59691
 Alpha  occ. eigenvalues --  -15.58908 -11.38515 -11.37293 -11.32195 -11.30402
 Alpha  occ. eigenvalues --  -11.30072  -9.01999  -6.70308  -6.70118  -6.69914
 Alpha  occ. eigenvalues --   -1.43378  -1.41614  -1.28588  -1.24299  -1.23196
 Alpha  occ. eigenvalues --   -1.12245  -1.03305  -0.91358  -0.87053  -0.81771
 Alpha  occ. eigenvalues --   -0.76976  -0.75842  -0.71458  -0.69982  -0.67175
 Alpha  occ. eigenvalues --   -0.64517  -0.62831  -0.62084  -0.58996  -0.58407
 Alpha  occ. eigenvalues --   -0.57100  -0.56108  -0.53406  -0.52339  -0.47402
 Alpha  occ. eigenvalues --   -0.46509  -0.46143  -0.42869  -0.41763  -0.38698
 Alpha virt. eigenvalues --    0.12892   0.15868   0.17634   0.19442   0.20874
 Alpha virt. eigenvalues --    0.21181   0.22429   0.23472   0.24299   0.27396
 Alpha virt. eigenvalues --    0.28398   0.29670   0.32295   0.34510   0.37791

 Mulliken atomic charges:
              1
     1  N   -0.768364
     2  H    0.406891
     3  C   -0.100352
     4  H    0.253913
     5  C    0.775458
     6  O   -0.596764
     7  C   -0.492791
     8  S    0.285973
     9  C    0.084639
    10  N   -0.376520
    11  H    0.246042
    12  H    0.252431
    13  C    0.521810
    14  O   -0.579160
    15  N   -0.934296
    16  H    0.182732
    17  H    0.438961
    18  H    0.399397
 Sum of Mulliken atomic charges =   0.00000

 Dipole moment (field-independent basis, Debye):
    X=              4.1271    Y=             -2.0512    Z=              1.5083  Tot=              4.8493
 Quadrupole moment (field-independent basis, Debye-Ang):
   XX=            -89.2655   YY=            -79.2425   ZZ=            -67.5875
   XY=              6.4364   XZ=              2.5781   YZ=             -8.6398

 Normal termination of Gaussian 09 at Mon Dec 30 09:51:05 2019.
