 Gaussian 09, Revision A.02,
 Gaussian 09:  EM64L-G09RevA.02 11-Jun-2009

 ---------------------------------------------
 #P opt=(,maxcycle=400) HF/6-31G* MaxDisk=50GB
 ---------------------------------------------

 ------------------------------------------------------------------
 ModifiedRes Rotatable Bond Optimization on bme-nova.bme.utexas.edu
 ------------------------------------------------------------------
 Symbolic Z-matrix:
 Charge =  0 Multiplicity = 1

 SCF Done:  E(RHF) =  -903.982454003     A.U. after   16 cycles
 SCF Done:  E(RHF) =  -903.999233037     A.U. after   15 cycles
 SCF Done:  E(RHF) =  -904.003816316     A.U. after   15 cycles
 SCF Done:  E(RHF) =  -904.007751521     A.U. after   17 cycles
 SCF Done:  E(RHF) =  -904.009663258     A.U. after   14 cycles
 SCF Done:  E(RHF) =  -904.010225015     A.U. after   14 cycles
 SCF Done:  E(RHF) =  -904.010746111     A.U. after   13 cycles
 SCF Done:  E(RHF) =  -904.011547765     A.U. after   14 cycles
 SCF Done:  E(RHF) =  -904.011563413     A.U. after   15 cycles
 SCF Done:  E(RHF) =  -904.012004557     A.U. after   14 cycles
 SCF Done:  E(RHF) =  -904.012246942     A.U. after   14 cycles
 SCF Done:  E(RHF) =  -904.012318109     A.U. after   12 cycles
 SCF Done:  E(RHF) =  -904.012334967     A.U. after   13 cycles
 SCF Done:  E(RHF) =  -904.012356084     A.U. after   11 cycles
 SCF Done:  E(RHF) =  -904.012371163     A.U. after   12 cycles
 SCF Done:  E(RHF) =  -904.012375694     A.U. after   10 cycles
 SCF Done:  E(RHF) =  -904.012376696     A.U. after   10 cycles
 SCF Done:  E(RHF) =  -904.012376771     A.U. after    9 cycles
 SCF Done:  E(RHF) =  -904.012376780     A.U. after    8 cycles
 Optimization completed.
    -- Stationary point found.

                         Standard orientation:
 ---------------------------------------------------------------------
 Center     Atomic      Atomic             Coordinates (Angstroms)
 Number     Number       Type             X           Y           Z
 ---------------------------------------------------------------------
      1          7           0        1.511747   -0.654100    1.052910
      2          1           0        1.621542   -0.357673    1.997637
      3          6           0        0.450992   -0.060777    0.253528
      4          1           0        0.247182   -0.748957   -0.554012
      5          6           0        0.921712    1.287613   -0.311720
      6          8           0        0.625513    2.321820    0.221526
      7          6           0       -0.789223    0.117921    1.121141
      8         16           0       -2.262089    0.640773    0.176397
      9          6           0       -2.729712   -0.877513   -0.452806
     10          7           0       -3.051647   -1.880697   -0.881496
     11          1           0       -1.022090   -0.797545    1.644682
     12          1           0       -0.633862    0.911975    1.837279
     13          6           0        2.486424   -1.408656    0.502595
     14          8           0        2.563462   -1.674255   -0.662224
     15          7           0        1.692505    1.196602   -1.407328
     16          1           0        3.210109   -1.770094    1.230706
     17          1           0        2.034809    0.315859   -1.724543
     18          1           0        2.114531    2.029386   -1.753550
 ---------------------------------------------------------------------

 The electronic state is 1-A.
 Alpha  occ. eigenvalues --  -92.00864 -20.56458 -20.54496 -15.62795 -15.59432
 Alpha  occ. eigenvalues --  -15.58746 -11.38036 -11.36828 -11.31373 -11.30272
 Alpha  occ. eigenvalues --  -11.29858  -9.01735  -6.70029  -6.69843  -6.69641
 Alpha  occ. eigenvalues --   -1.42890  -1.41177  -1.27995  -1.24171  -1.22912
 Alpha  occ. eigenvalues --   -1.12157  -1.02501  -0.91626  -0.86257  -0.81383
 Alpha  occ. eigenvalues --   -0.77043  -0.75258  -0.70998  -0.69362  -0.67133
 Alpha  occ. eigenvalues --   -0.63758  -0.62945  -0.61649  -0.58417  -0.57545
 Alpha  occ. eigenvalues --   -0.56719  -0.55815  -0.53264  -0.52323  -0.47143
 Alpha  occ. eigenvalues --   -0.46743  -0.45118  -0.42620  -0.41421  -0.38526
 Alpha virt. eigenvalues --    0.13038   0.16242   0.18969   0.19918   0.19982
 Alpha virt. eigenvalues --    0.21904   0.23450   0.23760   0.24125   0.27340
 Alpha virt. eigenvalues --    0.29127   0.30641   0.31367   0.35216   0.37766

 Mulliken atomic charges:
              1
     1  N   -0.768061
     2  H    0.399312
     3  C   -0.066803
     4  H    0.257279
     5  C    0.775396
     6  O   -0.611109
     7  C   -0.522260
     8  S    0.311106
     9  C    0.084191
    10  N   -0.382753
    11  H    0.242453
    12  H    0.251660
    13  C    0.520986
    14  O   -0.575370
    15  N   -0.926931
    16  H    0.177526
    17  H    0.434828
    18  H    0.398549
 Sum of Mulliken atomic charges =   0.00000

 Dipole moment (field-independent basis, Debye):
    X=              3.6603    Y=              0.8523    Z=              3.5257  Tot=              5.1532
 Quadrupole moment (field-independent basis, Debye-Ang):
   XX=            -74.8472   YY=            -86.0809   ZZ=            -63.7252
   XY=             -3.9844   XZ=              0.4439   YZ=            -10.1402

 Normal termination of Gaussian 09 at Tue Dec 31 08:59:06 2019.
