 Gaussian 09, Revision A.02,
 Gaussian 09:  EM64L-G09RevA.02 11-Jun-2009

 ---------------------------------------------
 #P opt=(,maxcycle=400) HF/6-31G* MaxDisk=50GB
 ---------------------------------------------

 ------------------------------------------------------------------
 ModifiedRes Rotatable Bond Optimization on bme-nova.bme.utexas.edu
 ------------------------------------------------------------------
 Symbolic Z-matrix:
 Charge =  0 Multiplicity = 1

 SCF Done:  E(RHF) =  -903.952183020     A.U. after   16 cycles
 SCF Done:  E(RHF) =  -903.971570630     A.U. after   14 cycles
 SCF Done:  E(RHF) =  -903.979866604     A.U. after   15 cycles
 SCF Done:  E(RHF) =  -903.994755336     A.U. after   16 cycles
 SCF Done:  E(RHF) =  -904.001817779     A.U. after   13 cycles
 SCF Done:  E(RHF) =  -904.009543156     A.U. after   14 cycles
 SCF Done:  E(RHF) =  -904.010735537     A.U. after   14 cycles
 SCF Done:  E(RHF) =  -904.010459387     A.U. after   13 cycles
 SCF Done:  E(RHF) =  -904.011276223     A.U. after   12 cycles
 SCF Done:  E(RHF) =  -904.011308986     A.U. after   13 cycles
 SCF Done:  E(RHF) =  -904.011437969     A.U. after   13 cycles
 SCF Done:  E(RHF) =  -904.011468811     A.U. after   12 cycles
 SCF Done:  E(RHF) =  -904.011474740     A.U. after   11 cycles
 SCF Done:  E(RHF) =  -904.011477166     A.U. after   11 cycles
 SCF Done:  E(RHF) =  -904.011478775     A.U. after   10 cycles
 SCF Done:  E(RHF) =  -904.011481063     A.U. after   11 cycles
 SCF Done:  E(RHF) =  -904.011481438     A.U. after   10 cycles
 SCF Done:  E(RHF) =  -904.011481517     A.U. after    8 cycles
 Optimization completed.
    -- Stationary point found.

                         Standard orientation:
 ---------------------------------------------------------------------
 Center     Atomic      Atomic             Coordinates (Angstroms)
 Number     Number       Type             X           Y           Z
 ---------------------------------------------------------------------
      1          7           0        0.972320   -0.886535    0.757461
      2          1           0        0.596273   -0.860419    1.679813
      3          6           0        0.605107    0.165575   -0.176276
      4          1           0        0.716607   -0.245108   -1.170405
      5          6           0        1.544398    1.374136   -0.029441
      6          8           0        1.191571    2.377370    0.523720
      7          6           0       -0.834703    0.614051    0.043928
      8         16           0       -1.956443   -0.821317   -0.177082
      9          6           0       -3.448510    0.002152   -0.102114
     10          7           0       -4.455989    0.527267   -0.053535
     11          1           0       -0.966714    1.028790    1.031070
     12          1           0       -1.092696    1.372083   -0.678636
     13          6           0        1.915362   -1.808632    0.474532
     14          8           0        2.538819   -1.848782   -0.547674
     15          7           0        2.763102    1.195792   -0.567346
     16          1           0        2.059570   -2.533142    1.273124
     17          1           0        3.054594    0.305665   -0.908796
     18          1           0        3.446375    1.905151   -0.421065
 ---------------------------------------------------------------------

 The electronic state is 1-A.
 Alpha  occ. eigenvalues --  -92.01090 -20.56944 -20.54874 -15.63317 -15.59692
 Alpha  occ. eigenvalues --  -15.58908 -11.38514 -11.37293 -11.32195 -11.30401
 Alpha  occ. eigenvalues --  -11.30072  -9.01999  -6.70308  -6.70118  -6.69914
 Alpha  occ. eigenvalues --   -1.43378  -1.41614  -1.28587  -1.24299  -1.23198
 Alpha  occ. eigenvalues --   -1.12245  -1.03305  -0.91357  -0.87053  -0.81771
 Alpha  occ. eigenvalues --   -0.76977  -0.75842  -0.71459  -0.69981  -0.67176
 Alpha  occ. eigenvalues --   -0.64517  -0.62831  -0.62086  -0.58995  -0.58406
 Alpha  occ. eigenvalues --   -0.57101  -0.56109  -0.53406  -0.52338  -0.47401
 Alpha  occ. eigenvalues --   -0.46509  -0.46143  -0.42870  -0.41764  -0.38697
 Alpha virt. eigenvalues --    0.12893   0.15867   0.17634   0.19443   0.20874
 Alpha virt. eigenvalues --    0.21182   0.22430   0.23471   0.24299   0.27396
 Alpha virt. eigenvalues --    0.28398   0.29670   0.32297   0.34511   0.37790

 Mulliken atomic charges:
              1
     1  N   -0.768361
     2  H    0.406893
     3  C   -0.100347
     4  H    0.253915
     5  C    0.775420
     6  O   -0.596768
     7  C   -0.492818
     8  S    0.286011
     9  C    0.084629
    10  N   -0.376527
    11  H    0.246089
    12  H    0.252392
    13  C    0.521810
    14  O   -0.579178
    15  N   -0.934256
    16  H    0.182738
    17  H    0.438966
    18  H    0.399393
 Sum of Mulliken atomic charges =   0.00000

 Dipole moment (field-independent basis, Debye):
    X=              4.1276    Y=             -2.0498    Z=              1.5071  Tot=              4.8487
 Quadrupole moment (field-independent basis, Debye-Ang):
   XX=            -89.2650   YY=            -79.2427   ZZ=            -67.5882
   XY=              6.4333   XZ=              2.5767   YZ=             -8.6407

 Normal termination of Gaussian 09 at Mon Dec 30 09:42:12 2019.
