 Gaussian 09, Revision A.02,
 Gaussian 09:  EM64L-G09RevA.02 11-Jun-2009

 ------------------------------------------------------------------
 #P MP2/6-311++G** SP SCF=(qc,maxcycle=800) Guess=Indo MaxDisk=50GB
 ------------------------------------------------------------------

 --------------------------------------------------------------------
 ModifiedRes Rotatable Bond SP Calculation on bme-nova.bme.utexas.edu
 --------------------------------------------------------------------
 Symbolic Z-matrix:
 Charge =  0 Multiplicity = 1

                         Standard orientation:
 ---------------------------------------------------------------------
 Center     Atomic      Atomic             Coordinates (Angstroms)
 Number     Number       Type             X           Y           Z
 ---------------------------------------------------------------------
      1          7           0        0.582553    0.952316   -0.524919
      2          1           0        0.016916    0.837577   -1.359542
      3          6           0        0.608658   -0.116321    0.503877
      4          1           0        0.875441    0.360462    1.457889
      5          6           0        1.697741   -1.152015    0.112916
      6          8           0        1.388423   -2.320944   -0.131653
      7          6           0       -0.775396   -0.793123    0.727362
      8         16           0       -1.974900   -0.616477   -0.667682
      9          6           0       -3.178196    0.306871    0.103931
     10          7           0       -4.028744    0.949607    0.621498
     11          1           0       -0.622451   -1.860621    0.898264
     12          1           0       -1.252391   -0.354708    1.607869
     13          6           0        1.403882    2.042428   -0.479721
     14          8           0        2.254321    2.210957    0.401431
     15          7           0        2.980662   -0.701526    0.076062
     16          1           0        1.245322    2.762433   -1.298060
     17          1           0        3.217502    0.239544    0.376312
     18          1           0        3.694670   -1.370986   -0.176720
 ---------------------------------------------------------------------

 SCF Done:  E(RHF) =  -904.154337202     a.u. after   12 cycles
 E2 =    -0.1757094487D+01 EUMP2 =    -0.90591143168922D+03

 The electronic state is 1-A.
 Alpha  occ. eigenvalues --  -92.03329 -20.56079 -20.54776 -15.63193 -15.60432
 Alpha  occ. eigenvalues --  -15.60252 -11.39285 -11.38520 -11.33734 -11.32025
 Alpha  occ. eigenvalues --  -11.31542  -9.03467  -6.71720  -6.71540  -6.71404
 Alpha  occ. eigenvalues --   -1.41298  -1.40187  -1.27267  -1.23173  -1.22701
 Alpha  occ. eigenvalues --   -1.11974  -1.03803  -0.91961  -0.86453  -0.81161
 Alpha  occ. eigenvalues --   -0.76797  -0.75488  -0.71412  -0.69839  -0.67304
 Alpha  occ. eigenvalues --   -0.64290  -0.63200  -0.60668  -0.59613  -0.57889
 Alpha  occ. eigenvalues --   -0.57445  -0.56498  -0.52951  -0.52351  -0.47573
 Alpha  occ. eigenvalues --   -0.46735  -0.46037  -0.43235  -0.42181  -0.39732
 Alpha virt. eigenvalues --    0.03177   0.04077   0.04837   0.05873   0.06816
 Alpha virt. eigenvalues --    0.07605   0.08333   0.08928   0.09391   0.09851
 Alpha virt. eigenvalues --    0.10758   0.11733   0.12574   0.13078   0.13316

 Mulliken atomic charges:
              1
     1  N   -0.191570
     2  H    0.312927
     3  C   -0.086248
     4  H    0.306732
     5  C    0.097091
     6  O   -0.420922
     7  C   -0.596333
     8  S    0.431270
     9  C   -0.338896
    10  N   -0.180592
    11  H    0.310079
    12  H    0.198337
    13  C    0.286452
    14  O   -0.457463
    15  N   -0.510225
    16  H    0.162678
    17  H    0.319567
    18  H    0.357117
 Sum of Mulliken atomic charges =   0.00000

 Dipole moment (field-independent basis, Debye):
    X=              2.8031    Y=              0.2054    Z=             -1.5723  Tot=              3.2205
 Quadrupole moment (field-independent basis, Debye-Ang):
   XX=            -87.7025   YY=            -84.8264   ZZ=            -67.7554
   XY=              2.6204   XZ=              1.0825   YZ=             -8.7442

 Normal termination of Gaussian 09 at Tue Dec 31 09:03:35 2019.
