 Gaussian 09, Revision A.02,
 Gaussian 09:  EM64L-G09RevA.02 11-Jun-2009

 ------------------------------------------------------------------
 #P MP2/6-311++G** SP SCF=(qc,maxcycle=800) Guess=Indo MaxDisk=50GB
 ------------------------------------------------------------------

 --------------------------------------------------------------------
 ModifiedRes Rotatable Bond SP Calculation on bme-nova.bme.utexas.edu
 --------------------------------------------------------------------
 Symbolic Z-matrix:
 Charge =  0 Multiplicity = 1

                         Standard orientation:
 ---------------------------------------------------------------------
 Center     Atomic      Atomic             Coordinates (Angstroms)
 Number     Number       Type             X           Y           Z
 ---------------------------------------------------------------------
      1          7           0        0.701476    1.484928   -0.078433
      2          1           0        1.399962    1.880706   -0.700828
      3          6           0        0.697771    0.017720    0.087022
      4          1           0        0.228204   -0.229522    1.047268
      5          6           0        2.156665   -0.496886    0.063859
      6          8           0        2.966713   -0.013924   -0.729913
      7          6           0       -0.053257   -0.704786   -1.054139
      8         16           0       -1.862292   -0.354190   -1.025902
      9          6           0       -2.218713   -1.213884    0.399514
     10          7           0       -2.431446   -1.779947    1.420914
     11          1           0        0.312996   -0.343694   -2.019242
     12          1           0        0.097309   -1.786281   -1.022147
     13          6           0       -0.039354    2.329306    0.694572
     14          8           0       -1.237889    2.551028    0.522220
     15          7           0        2.440636   -1.531170    0.901096
     16          1           0        0.547370    2.822237    1.486356
     17          1           0        1.757787   -1.897877    1.553848
     18          1           0        3.389118   -1.880857    0.880716
 ---------------------------------------------------------------------

 SCF Done:  E(RHF) =  -904.120296162     a.u. after   11 cycles
 E2 =    -0.1758074626D+01 EUMP2 =    -0.90587837078775D+03

 The electronic state is 1-A.
 Alpha  occ. eigenvalues --  -92.02098 -20.57248 -20.55513 -15.62373 -15.59940
 Alpha  occ. eigenvalues --  -15.58171 -11.39436 -11.37703 -11.33550 -11.31621
 Alpha  occ. eigenvalues --  -11.31226  -9.02222  -6.70461  -6.70282  -6.70122
 Alpha  occ. eigenvalues --   -1.41266  -1.40371  -1.25325  -1.24450  -1.22697
 Alpha  occ. eigenvalues --   -1.11672  -1.02694  -0.91254  -0.85689  -0.82050
 Alpha  occ. eigenvalues --   -0.77319  -0.74087  -0.70170  -0.69310  -0.67131
 Alpha  occ. eigenvalues --   -0.65141  -0.64017  -0.62883  -0.59759  -0.57031
 Alpha  occ. eigenvalues --   -0.56401  -0.53584  -0.52788  -0.51023  -0.46998
 Alpha  occ. eigenvalues --   -0.46266  -0.45482  -0.44652  -0.40862  -0.38387
 Alpha virt. eigenvalues --    0.02941   0.04571   0.04690   0.05969   0.06748
 Alpha virt. eigenvalues --    0.07534   0.07772   0.08925   0.10063   0.10357
 Alpha virt. eigenvalues --    0.10826   0.11421   0.12186   0.12759   0.13479

 Mulliken atomic charges:
              1
     1  N   -0.094442
     2  H    0.344851
     3  C   -0.812884
     4  H    0.252573
     5  C    0.292576
     6  O   -0.423040
     7  C   -0.326343
     8  S    0.678372
     9  C   -0.431974
    10  N   -0.184276
    11  H    0.276586
    12  H    0.217374
    13  C    0.144886
    14  O   -0.265631
    15  N   -0.452321
    16  H    0.141583
    17  H    0.278074
    18  H    0.364037
 Sum of Mulliken atomic charges =   0.00000

 Dipole moment (field-independent basis, Debye):
    X=              4.0462    Y=             -1.5039    Z=              0.0062  Tot=              4.3167
 Quadrupole moment (field-independent basis, Debye-Ang):
   XX=            -86.4572   YY=            -72.8633   ZZ=            -71.2956
   XY=             -3.8127   XZ=             13.7543   YZ=              0.9663

 Normal termination of Gaussian 09 at Mon Dec 30 09:47:22 2019.
