 Gaussian 09, Revision A.02,
 Gaussian 09:  EM64L-G09RevA.02 11-Jun-2009

 ------------------------------------------------------------------
 #P MP2/6-311++G** SP SCF=(qc,maxcycle=800) Guess=Indo MaxDisk=50GB
 ------------------------------------------------------------------

 --------------------------------------------------------------------
 ModifiedRes Rotatable Bond SP Calculation on bme-nova.bme.utexas.edu
 --------------------------------------------------------------------
 Symbolic Z-matrix:
 Charge =  0 Multiplicity = 1

                         Standard orientation:
 ---------------------------------------------------------------------
 Center     Atomic      Atomic             Coordinates (Angstroms)
 Number     Number       Type             X           Y           Z
 ---------------------------------------------------------------------
      1          7           0        0.982947   -0.983925    0.615960
      2          1           0        0.634805   -1.011059    1.569480
      3          6           0        0.562492    0.138895   -0.245440
      4          1           0        0.645467   -0.209260   -1.283888
      5          6           0        1.503111    1.358654   -0.043264
      6          8           0        1.112660    2.329073    0.610676
      7          6           0       -0.893030    0.561531    0.047773
      8         16           0       -2.036988   -0.854365   -0.228402
      9          6           0       -3.520741   -0.043824   -0.054681
     10          7           0       -4.546411    0.542297    0.039154
     11          1           0       -0.995587    0.914119    1.076447
     12          1           0       -1.177619    1.373457   -0.625637
     13          6           0        1.945459   -1.872928    0.234426
     14          8           0        3.088366   -1.553651   -0.107213
     15          7           0        2.735801    1.293699   -0.610102
     16          1           0        1.596779   -2.917633    0.233811
     17          1           0        3.161603    0.396369   -0.816185
     18          1           0        3.328054    2.102010   -0.475284
 ---------------------------------------------------------------------

 SCF Done:  E(RHF) =  -904.130035449     a.u. after   11 cycles
 E2 =    -0.1754642082D+01 EUMP2 =    -0.90588467753109D+03

 The electronic state is 1-A.
 Alpha  occ. eigenvalues --  -92.02866 -20.59406 -20.54392 -15.61488 -15.60136
 Alpha  occ. eigenvalues --  -15.59550 -11.40569 -11.38091 -11.34172 -11.31646
 Alpha  occ. eigenvalues --  -11.31478  -9.03014  -6.71274  -6.71092  -6.70938
 Alpha  occ. eigenvalues --   -1.43190  -1.39953  -1.27635  -1.22830  -1.22445
 Alpha  occ. eigenvalues --   -1.12151  -1.03472  -0.91367  -0.87658  -0.81183
 Alpha  occ. eigenvalues --   -0.76727  -0.75135  -0.71508  -0.70055  -0.68177
 Alpha  occ. eigenvalues --   -0.67447  -0.62509  -0.61084  -0.59033  -0.57608
 Alpha  occ. eigenvalues --   -0.56819  -0.54926  -0.53386  -0.51948  -0.49210
 Alpha  occ. eigenvalues --   -0.47761  -0.45851  -0.42776  -0.41959  -0.39033
 Alpha virt. eigenvalues --    0.03008   0.04140   0.04796   0.05419   0.06834
 Alpha virt. eigenvalues --    0.07300   0.07715   0.08592   0.09542   0.10466
 Alpha virt. eigenvalues --    0.10710   0.11008   0.12220   0.12580   0.13549

 Mulliken atomic charges:
              1
     1  N   -0.059784
     2  H    0.322468
     3  C   -0.485002
     4  H    0.240691
     5  C    0.288416
     6  O   -0.389789
     7  C   -0.470906
     8  S    0.068024
     9  C   -0.052108
    10  N   -0.203819
    11  H    0.268237
    12  H    0.237560
    13  C    0.226052
    14  O   -0.360802
    15  N   -0.455801
    16  H    0.172058
    17  H    0.310937
    18  H    0.343568
 Sum of Mulliken atomic charges =   0.00000

 Dipole moment (field-independent basis, Debye):
    X=              3.4611    Y=             -3.3561    Z=             -0.4587  Tot=              4.8428
 Quadrupole moment (field-independent basis, Debye-Ang):
   XX=            -98.8774   YY=            -76.3480   ZZ=            -69.7564
   XY=              6.5440   XZ=             -0.7955   YZ=             -6.0535

 Normal termination of Gaussian 09 at Mon Dec 30 09:45:09 2019.
