 Gaussian 09, Revision A.02,
 Gaussian 09:  EM64L-G09RevA.02 11-Jun-2009

 ------------------------------------------------------------------
 #P MP2/6-311++G** SP SCF=(qc,maxcycle=800) Guess=Indo MaxDisk=50GB
 ------------------------------------------------------------------

 --------------------------------------------------------------------
 ModifiedRes Rotatable Bond SP Calculation on bme-nova.bme.utexas.edu
 --------------------------------------------------------------------
 Symbolic Z-matrix:
 Charge =  0 Multiplicity = 1

                         Standard orientation:
 ---------------------------------------------------------------------
 Center     Atomic      Atomic             Coordinates (Angstroms)
 Number     Number       Type             X           Y           Z
 ---------------------------------------------------------------------
      1          7           0        1.199982   -0.947104    0.467649
      2          1           0        1.618534   -1.013048    1.389607
      3          6           0        0.625193    0.243830   -0.183903
      4          1           0        0.525699    0.036942   -1.256985
      5          6           0        1.545716    1.464997    0.054935
      6          8           0        2.092005    1.619732    1.147656
      7          6           0       -0.762634    0.589244    0.389318
      8         16           0       -1.909240   -0.847404    0.218020
      9          6           0       -3.349246   -0.009982   -0.124652
     10          7           0       -4.362144    0.556310   -0.364428
     11          1           0       -0.678380    0.840075    1.450322
     12          1           0       -1.191675    1.440180   -0.145787
     13          6           0        1.586839   -2.024800   -0.276148
     14          8           0        2.759086   -2.347071   -0.473448
     15          7           0        1.642173    2.354790   -0.970068
     16          1           0        0.741180   -2.580472   -0.714693
     17          1           0        1.247087    2.172679   -1.884491
     18          1           0        2.241402    3.153107   -0.809323
 ---------------------------------------------------------------------

 SCF Done:  E(RHF) =  -904.122595952     a.u. after   12 cycles
 E2 =    -0.1756247142D+01 EUMP2 =    -0.90587884309400D+03

 The electronic state is 1-A.
 Alpha  occ. eigenvalues --  -92.03524 -20.57204 -20.55633 -15.62674 -15.60615
 Alpha  occ. eigenvalues --  -15.59547 -11.39770 -11.37920 -11.34978 -11.32185
 Alpha  occ. eigenvalues --  -11.32168  -9.03649  -6.71898  -6.71718  -6.71567
 Alpha  occ. eigenvalues --   -1.41470  -1.40620  -1.26362  -1.24905  -1.23355
 Alpha  occ. eigenvalues --   -1.12620  -1.04018  -0.91744  -0.86008  -0.83625
 Alpha  occ. eigenvalues --   -0.77703  -0.73485  -0.71883  -0.69121  -0.68360
 Alpha  occ. eigenvalues --   -0.66116  -0.64714  -0.62881  -0.60262  -0.57921
 Alpha  occ. eigenvalues --   -0.57060  -0.54527  -0.52798  -0.52531  -0.47442
 Alpha  occ. eigenvalues --   -0.46357  -0.46182  -0.44794  -0.42096  -0.39555
 Alpha virt. eigenvalues --    0.02199   0.04314   0.04750   0.05704   0.06375
 Alpha virt. eigenvalues --    0.07211   0.07719   0.08449   0.09582   0.10407
 Alpha virt. eigenvalues --    0.10575   0.11552   0.11887   0.12850   0.13273

 Mulliken atomic charges:
              1
     1  N   -0.101518
     2  H    0.373650
     3  C   -0.815831
     4  H    0.239390
     5  C    0.386769
     6  O   -0.402912
     7  C   -0.173042
     8  S    0.286551
     9  C   -0.177504
    10  N   -0.208043
    11  H    0.247089
    12  H    0.169872
    13  C    0.133486
    14  O   -0.288210
    15  N   -0.444693
    16  H    0.142978
    17  H    0.269265
    18  H    0.362702
 Sum of Mulliken atomic charges =   0.00000

 Dipole moment (field-independent basis, Debye):
    X=              0.4154    Y=              1.9021    Z=             -2.2137  Tot=              2.9480
 Quadrupole moment (field-independent basis, Debye-Ang):
   XX=           -109.8219   YY=            -70.6497   ZZ=            -69.1191
   XY=             12.6617   XZ=             -6.5472   YZ=             -9.6243

 Normal termination of Gaussian 09 at Mon Dec 30 09:47:35 2019.
