 Gaussian 09, Revision A.02,
 Gaussian 09:  EM64L-G09RevA.02 11-Jun-2009

 ------------------------------------------------------------------
 #P MP2/6-311++G** SP SCF=(qc,maxcycle=800) Guess=Indo MaxDisk=50GB
 ------------------------------------------------------------------

 --------------------------------------------------------------------
 ModifiedRes Rotatable Bond SP Calculation on bme-nova.bme.utexas.edu
 --------------------------------------------------------------------
 Symbolic Z-matrix:
 Charge =  0 Multiplicity = 1

                         Standard orientation:
 ---------------------------------------------------------------------
 Center     Atomic      Atomic             Coordinates (Angstroms)
 Number     Number       Type             X           Y           Z
 ---------------------------------------------------------------------
      1          7           0       -1.109678    0.837450    0.848120
      2          1           0       -1.252845    0.566520    1.816788
      3          6           0       -0.768862   -0.187984   -0.159456
      4          1           0       -0.865570    0.284788   -1.146131
      5          6           0       -1.755358   -1.375489   -0.068737
      6          8           0       -1.410444   -2.439797    0.447578
      7          6           0        0.673670   -0.701144    0.030080
      8         16           0        1.885262    0.679594   -0.113790
      9          6           0        3.319455   -0.233621   -0.086780
     10          7           0        4.334201   -0.846686   -0.070267
     11          1           0        0.787836   -1.177562    1.006215
     12          1           0        0.899283   -1.437072   -0.745327
     13          6           0       -1.435625    2.121040    0.513816
     14          8           0       -1.465720    2.526476   -0.650393
     15          7           0       -2.992731   -1.151516   -0.587650
     16          1           0       -1.667039    2.768316    1.374563
     17          1           0       -3.227375   -0.266116   -1.022186
     18          1           0       -3.651403   -1.917367   -0.545717
 ---------------------------------------------------------------------

 SCF Done:  E(RHF) =  -904.158201741     a.u. after   11 cycles
 E2 =    -0.1755309024D+01 EUMP2 =    -0.90591351076505D+03

 The electronic state is 1-A.
 Alpha  occ. eigenvalues --  -92.02132 -20.55956 -20.55818 -15.63578 -15.62111
 Alpha  occ. eigenvalues --  -15.59494 -11.39646 -11.39216 -11.33754 -11.31067
 Alpha  occ. eigenvalues --  -11.30736  -9.02270  -6.70526  -6.70345  -6.70187
 Alpha  occ. eigenvalues --   -1.41588  -1.40870  -1.27711  -1.24337  -1.22175
 Alpha  occ. eigenvalues --   -1.11726  -1.03583  -0.91529  -0.86453  -0.82657
 Alpha  occ. eigenvalues --   -0.78245  -0.74926  -0.71166  -0.70055  -0.67809
 Alpha  occ. eigenvalues --   -0.64098  -0.63253  -0.62183  -0.59506  -0.58250
 Alpha  occ. eigenvalues --   -0.56643  -0.56274  -0.52873  -0.51319  -0.47334
 Alpha  occ. eigenvalues --   -0.46617  -0.45271  -0.44654  -0.42874  -0.38379
 Alpha virt. eigenvalues --    0.02474   0.03508   0.05365   0.05526   0.06973
 Alpha virt. eigenvalues --    0.07515   0.08212   0.08807   0.09764   0.10820
 Alpha virt. eigenvalues --    0.11425   0.12202   0.12468   0.12962   0.13404

 Mulliken atomic charges:
              1
     1  N   -0.082879
     2  H    0.353570
     3  C   -0.228582
     4  H    0.252329
     5  C    0.146410
     6  O   -0.383892
     7  C   -0.502781
     8  S    0.055372
     9  C    0.005525
    10  N   -0.220930
    11  H    0.240831
    12  H    0.247707
    13  C    0.207760
    14  O   -0.417149
    15  N   -0.505031
    16  H    0.145595
    17  H    0.310366
    18  H    0.375779
 Sum of Mulliken atomic charges =   0.00000

 Dipole moment (field-independent basis, Debye):
    X=             -6.5120    Y=              1.2263    Z=              1.5733  Tot=              6.8107
 Quadrupole moment (field-independent basis, Debye-Ang):
   XX=            -82.7641   YY=            -86.9731   ZZ=            -68.1352
   XY=              6.7262   XZ=             -0.5230   YZ=             11.0260

 Normal termination of Gaussian 09 at Mon Dec 30 09:58:30 2019.
