 Gaussian 09, Revision A.02,
 Gaussian 09:  EM64L-G09RevA.02 11-Jun-2009

 ---------------------------------------------
 #P opt=(,maxcycle=400) HF/6-31G* MaxDisk=50GB
 ---------------------------------------------

 ------------------------------------------------------------------
 ModifiedRes Rotatable Bond Optimization on bme-nova.bme.utexas.edu
 ------------------------------------------------------------------
 Symbolic Z-matrix:
 Charge =  0 Multiplicity = 1

 SCF Done:  E(RHF) =  -903.976068003     A.U. after   16 cycles
 SCF Done:  E(RHF) =  -903.993069244     A.U. after   14 cycles
 SCF Done:  E(RHF) =  -903.997207683     A.U. after   13 cycles
 SCF Done:  E(RHF) =  -903.999073228     A.U. after   17 cycles
 SCF Done:  E(RHF) =  -904.000908637     A.U. after   14 cycles
 SCF Done:  E(RHF) =  -904.001287650     A.U. after   14 cycles
 SCF Done:  E(RHF) =  -904.001631411     A.U. after   14 cycles
 SCF Done:  E(RHF) =  -904.001981425     A.U. after   16 cycles
 SCF Done:  E(RHF) =  -904.000736093     A.U. after   17 cycles
 SCF Done:  E(RHF) =  -904.002461225     A.U. after   16 cycles
 SCF Done:  E(RHF) =  -904.002724027     A.U. after    9 cycles
 SCF Done:  E(RHF) =  -904.002724319     A.U. after   10 cycles
 SCF Done:  E(RHF) =  -904.002724809     A.U. after   11 cycles
 SCF Done:  E(RHF) =  -904.002725301     A.U. after   11 cycles
 SCF Done:  E(RHF) =  -904.002726094     A.U. after   11 cycles
 SCF Done:  E(RHF) =  -904.002727103     A.U. after   12 cycles
 SCF Done:  E(RHF) =  -904.002727374     A.U. after    9 cycles
 SCF Done:  E(RHF) =  -904.002727416     A.U. after    9 cycles
 SCF Done:  E(RHF) =  -904.002727449     A.U. after   10 cycles
 SCF Done:  E(RHF) =  -904.002727467     A.U. after   10 cycles
 Optimization completed on the basis of negligible forces.
    -- Stationary point found.

                         Standard orientation:
 ---------------------------------------------------------------------
 Center     Atomic      Atomic             Coordinates (Angstroms)
 Number     Number       Type             X           Y           Z
 ---------------------------------------------------------------------
      1          7           0        1.232018    0.889496   -0.277074
      2          1           0        1.659907    0.821173   -1.178742
      3          6           0        0.640846   -0.315689    0.240606
      4          1           0        0.499617   -0.197569    1.308063
      5          6           0        1.553445   -1.511004   -0.058848
      6          8           0        2.127238   -1.580901   -1.106905
      7          6           0       -0.718737   -0.601313   -0.410319
      8         16           0       -1.836779    0.832503   -0.155814
      9          6           0       -3.307373   -0.006007    0.060824
     10          7           0       -4.296703   -0.545351    0.215038
     11          1           0       -0.594760   -0.763197   -1.471103
     12          1           0       -1.176654   -1.476754    0.026744
     13          6           0        1.651899    1.927254    0.497990
     14          8           0        2.326765    2.825788    0.109651
     15          7           0        1.599635   -2.471261    0.884735
     16          1           0        1.286624    1.871757    1.524316
     17          1           0        1.226915   -2.346171    1.796985
     18          1           0        2.189672   -3.258026    0.724396
 ---------------------------------------------------------------------

 The electronic state is 1-A.
 Alpha  occ. eigenvalues --  -92.01661 -20.56433 -20.55029 -15.62407 -15.61324
 Alpha  occ. eigenvalues --  -15.59348 -11.38989 -11.36758 -11.33294 -11.31305
 Alpha  occ. eigenvalues --  -11.30564  -9.02538  -6.70835  -6.70650  -6.70446
 Alpha  occ. eigenvalues --   -1.43549  -1.41432  -1.27638  -1.25527  -1.24775
 Alpha  occ. eigenvalues --   -1.12403  -1.03389  -0.91520  -0.87516  -0.84167
 Alpha  occ. eigenvalues --   -0.78073  -0.73736  -0.71563  -0.68529  -0.68004
 Alpha  occ. eigenvalues --   -0.65766  -0.64287  -0.62755  -0.59497  -0.58428
 Alpha  occ. eigenvalues --   -0.57131  -0.56466  -0.53993  -0.52950  -0.47715
 Alpha  occ. eigenvalues --   -0.46159  -0.45026  -0.44622  -0.41528  -0.39106
 Alpha virt. eigenvalues --    0.11628   0.16277   0.17108   0.18902   0.20551
 Alpha virt. eigenvalues --    0.21012   0.22019   0.23144   0.23352   0.25722
 Alpha virt. eigenvalues --    0.27185   0.28735   0.31204   0.33370   0.37218

 Mulliken atomic charges:
              1
     1  N   -0.754920
     2  H    0.422885
     3  C   -0.085561
     4  H    0.210227
     5  C    0.766232
     6  O   -0.588301
     7  C   -0.500818
     8  S    0.310702
     9  C    0.079803
    10  N   -0.380623
    11  H    0.251554
    12  H    0.240290
    13  C    0.527876
    14  O   -0.540041
    15  N   -0.917284
    16  H    0.148451
    17  H    0.398607
    18  H    0.410922
 Sum of Mulliken atomic charges =   0.00000

 Dipole moment (field-independent basis, Debye):
    X=              1.4745    Y=             -4.0142    Z=              3.3678  Tot=              5.4433
 Quadrupole moment (field-independent basis, Debye-Ang):
   XX=           -100.6140   YY=            -76.3619   ZZ=            -66.6986
   XY=            -13.8421   XZ=              8.5434   YZ=             -5.8478

 Normal termination of Gaussian 09 at Mon Dec 30 09:43:26 2019.
