 Gaussian 09, Revision A.02,
 Gaussian 09:  EM64L-G09RevA.02 11-Jun-2009

 ---------------------------------------------
 #P opt=(,maxcycle=400) HF/6-31G* MaxDisk=50GB
 ---------------------------------------------

 ------------------------------------------------------------------
 ModifiedRes Rotatable Bond Optimization on bme-nova.bme.utexas.edu
 ------------------------------------------------------------------
 Symbolic Z-matrix:
 Charge =  0 Multiplicity = 1

 SCF Done:  E(RHF) =  -903.964402155     A.U. after   16 cycles
 SCF Done:  E(RHF) =  -903.981233694     A.U. after   15 cycles
 SCF Done:  E(RHF) =  -903.979864068     A.U. after   16 cycles
 SCF Done:  E(RHF) =  -903.988045306     A.U. after   15 cycles
 SCF Done:  E(RHF) =  -903.992032318     A.U. after   14 cycles
 SCF Done:  E(RHF) =  -903.995155149     A.U. after   17 cycles
 SCF Done:  E(RHF) =  -903.996192920     A.U. after   16 cycles
 SCF Done:  E(RHF) =  -903.997123821     A.U. after   13 cycles
 SCF Done:  E(RHF) =  -903.997359370     A.U. after   13 cycles
 SCF Done:  E(RHF) =  -903.997496019     A.U. after   13 cycles
 SCF Done:  E(RHF) =  -904.010259327     A.U. after   17 cycles
 SCF Done:  E(RHF) =  -904.010900984     A.U. after   16 cycles
 SCF Done:  E(RHF) =  -904.010771392     A.U. after   13 cycles
 SCF Done:  E(RHF) =  -904.011081059     A.U. after   14 cycles
 SCF Done:  E(RHF) =  -904.011239577     A.U. after   14 cycles
 SCF Done:  E(RHF) =  -904.011247841     A.U. after   12 cycles
 SCF Done:  E(RHF) =  -904.011250042     A.U. after   10 cycles
 SCF Done:  E(RHF) =  -904.011250629     A.U. after   10 cycles
 SCF Done:  E(RHF) =  -904.011250852     A.U. after    9 cycles
 SCF Done:  E(RHF) =  -904.011250944     A.U. after    8 cycles
 Optimization completed.
    -- Stationary point found.

                         Standard orientation:
 ---------------------------------------------------------------------
 Center     Atomic      Atomic             Coordinates (Angstroms)
 Number     Number       Type             X           Y           Z
 ---------------------------------------------------------------------
      1          7           0       -2.054477    0.438042   -0.422729
      2          1           0       -2.125243    1.238363   -1.012739
      3          6           0       -0.781214    0.204754    0.211786
      4          1           0       -0.951965   -0.123756    1.228055
      5          6           0       -0.025026    1.533672    0.188893
      6          8           0       -0.187881    2.305201   -0.715788
      7          6           0       -0.031173   -0.903378   -0.552140
      8         16           0        1.441825   -1.591010    0.291319
      9          6           0        2.674566   -0.560549   -0.286610
     10          7           0        3.524242    0.104501   -0.645772
     11          1           0       -0.695653   -1.750365   -0.638302
     12          1           0        0.246454   -0.575331   -1.543381
     13          6           0       -3.108949   -0.375082   -0.225953
     14          8           0       -3.083776   -1.364157    0.448474
     15          7           0        0.796264    1.766871    1.225951
     16          1           0       -4.005658   -0.045794   -0.748715
     17          1           0        0.994653    1.072663    1.908924
     18          1           0        1.410024    2.549625    1.165569
 ---------------------------------------------------------------------

 The electronic state is 1-A.
 Alpha  occ. eigenvalues --  -92.01655 -20.55497 -20.54953 -15.61051 -15.61029
 Alpha  occ. eigenvalues --  -15.59444 -11.38057 -11.36587 -11.31597 -11.30608
 Alpha  occ. eigenvalues --  -11.30600  -9.02557  -6.70863  -6.70667  -6.70480
 Alpha  occ. eigenvalues --   -1.42654  -1.41219  -1.26750  -1.24911  -1.24409
 Alpha  occ. eigenvalues --   -1.12067  -1.02898  -0.92326  -0.85570  -0.81467
 Alpha  occ. eigenvalues --   -0.78613  -0.73665  -0.71503  -0.68306  -0.66892
 Alpha  occ. eigenvalues --   -0.64386  -0.64127  -0.61001  -0.59869  -0.58123
 Alpha  occ. eigenvalues --   -0.56709  -0.55437  -0.53922  -0.52996  -0.47104
 Alpha  occ. eigenvalues --   -0.45379  -0.44621  -0.43731  -0.41810  -0.39118
 Alpha virt. eigenvalues --    0.12079   0.16863   0.18563   0.19158   0.20311
 Alpha virt. eigenvalues --    0.20975   0.23184   0.23722   0.26066   0.26660
 Alpha virt. eigenvalues --    0.27925   0.29185   0.31133   0.34996   0.36869

 Mulliken atomic charges:
              1
     1  N   -0.781609
     2  H    0.428482
     3  C   -0.032954
     4  H    0.236857
     5  C    0.753343
     6  O   -0.605681
     7  C   -0.516571
     8  S    0.266585
     9  C    0.091960
    10  N   -0.379381
    11  H    0.266213
    12  H    0.250986
    13  C    0.514970
    14  O   -0.575900
    15  N   -0.908077
    16  H    0.172100
    17  H    0.407156
    18  H    0.411518
 Sum of Mulliken atomic charges =   0.00000

 Dipole moment (field-independent basis, Debye):
    X=             -1.6347    Y=              0.2972    Z=              1.2052  Tot=              2.0526
 Quadrupole moment (field-independent basis, Debye-Ang):
   XX=            -83.1372   YY=            -77.9072   ZZ=            -67.9542
   XY=             -6.8992   XZ=             12.1918   YZ=              7.3681

 Normal termination of Gaussian 09 at Mon Dec 30 09:54:48 2019.
