 Gaussian 09, Revision A.02,
 Gaussian 09:  EM64L-G09RevA.02 11-Jun-2009

 ---------------------------------------------
 #P opt=(,maxcycle=400) HF/6-31G* MaxDisk=50GB
 ---------------------------------------------

 ------------------------------------------------------------------
 ModifiedRes Rotatable Bond Optimization on bme-nova.bme.utexas.edu
 ------------------------------------------------------------------
 Symbolic Z-matrix:
 Charge =  0 Multiplicity = 1

 SCF Done:  E(RHF) =  -903.974408813     A.U. after   16 cycles
 SCF Done:  E(RHF) =  -903.990769329     A.U. after   15 cycles
 SCF Done:  E(RHF) =  -903.992580761     A.U. after   15 cycles
 SCF Done:  E(RHF) =  -903.995807697     A.U. after   16 cycles
 SCF Done:  E(RHF) =  -903.996831626     A.U. after   15 cycles
 SCF Done:  E(RHF) =  -903.998827200     A.U. after   16 cycles
 SCF Done:  E(RHF) =  -903.998859864     A.U. after   16 cycles
 SCF Done:  E(RHF) =  -904.002668570     A.U. after   17 cycles
 SCF Done:  E(RHF) =  -904.002145912     A.U. after   13 cycles
 SCF Done:  E(RHF) =  -904.004546289     A.U. after   15 cycles
 SCF Done:  E(RHF) =  -904.005509856     A.U. after   14 cycles
 SCF Done:  E(RHF) =  -904.005856638     A.U. after   14 cycles
 SCF Done:  E(RHF) =  -904.005897253     A.U. after   13 cycles
 SCF Done:  E(RHF) =  -904.005934254     A.U. after   12 cycles
 SCF Done:  E(RHF) =  -904.005957950     A.U. after   12 cycles
 SCF Done:  E(RHF) =  -904.005971685     A.U. after   12 cycles
 SCF Done:  E(RHF) =  -904.005973036     A.U. after   11 cycles
 SCF Done:  E(RHF) =  -904.005973489     A.U. after   10 cycles
 SCF Done:  E(RHF) =  -904.005973598     A.U. after    9 cycles
 Optimization completed.
    -- Stationary point found.

                         Standard orientation:
 ---------------------------------------------------------------------
 Center     Atomic      Atomic             Coordinates (Angstroms)
 Number     Number       Type             X           Y           Z
 ---------------------------------------------------------------------
      1          7           0       -1.057506    1.146684   -0.747602
      2          1           0       -0.881822    1.602818   -1.614974
      3          6           0       -0.682945   -0.252586   -0.628015
      4          1           0       -0.518925   -0.602903   -1.641049
      5          6           0       -1.798878   -1.152119   -0.074820
      6          8           0       -1.522669   -2.176401    0.476728
      7          6           0        0.596836   -0.484763    0.179757
      8         16           0        1.949753    0.502676   -0.574035
      9          6           0        3.293991   -0.255491    0.148931
     10          7           0        4.211460   -0.741337    0.612897
     11          1           0        0.468055   -0.185460    1.206493
     12          1           0        0.861313   -1.527373    0.138894
     13          6           0       -1.322753    1.931390    0.329675
     14          8           0       -1.449377    1.521238    1.441513
     15          7           0       -3.063804   -0.781998   -0.368240
     16          1           0       -1.437139    2.983703    0.073132
     17          1           0       -3.273510    0.159638   -0.601519
     18          1           0       -3.786202   -1.313977    0.065104
 ---------------------------------------------------------------------

 The electronic state is 1-A.
 Alpha  occ. eigenvalues --  -92.00584 -20.57037 -20.54731 -15.63340 -15.59943
 Alpha  occ. eigenvalues --  -15.58471 -11.38371 -11.37457 -11.32539 -11.29706
 Alpha  occ. eigenvalues --  -11.29253  -9.01517  -6.69837  -6.69641  -6.69445
 Alpha  occ. eigenvalues --   -1.43568  -1.41698  -1.28659  -1.23870  -1.23113
 Alpha  occ. eigenvalues --   -1.11557  -1.03115  -0.91465  -0.86634  -0.79702
 Alpha  occ. eigenvalues --   -0.79474  -0.75542  -0.70798  -0.68039  -0.67477
 Alpha  occ. eigenvalues --   -0.65182  -0.62544  -0.61384  -0.60456  -0.58262
 Alpha  occ. eigenvalues --   -0.55974  -0.55492  -0.53005  -0.51989  -0.46696
 Alpha  occ. eigenvalues --   -0.46164  -0.45697  -0.43375  -0.42072  -0.38371
 Alpha virt. eigenvalues --    0.12848   0.16460   0.17140   0.18718   0.21438
 Alpha virt. eigenvalues --    0.21692   0.22298   0.23767   0.25179   0.26953
 Alpha virt. eigenvalues --    0.27770   0.28775   0.31101   0.35419   0.38403

 Mulliken atomic charges:
              1
     1  N   -0.803521
     2  H    0.402407
     3  C   -0.073135
     4  H    0.241142
     5  C    0.782994
     6  O   -0.589964
     7  C   -0.494739
     8  S    0.255135
     9  C    0.090571
    10  N   -0.377386
    11  H    0.269562
    12  H    0.265110
    13  C    0.503378
    14  O   -0.541192
    15  N   -0.907003
    16  H    0.176092
    17  H    0.399232
    18  H    0.401317
 Sum of Mulliken atomic charges =   0.00000

 Dipole moment (field-independent basis, Debye):
    X=             -5.1633    Y=              4.0390    Z=             -5.0019  Tot=              8.2457
 Quadrupole moment (field-independent basis, Debye-Ang):
   XX=            -81.4500   YY=            -73.2348   ZZ=            -73.7018
   XY=             -0.1881   XZ=              1.7307   YZ=             -3.1687

 Normal termination of Gaussian 09 at Mon Dec 30 09:51:55 2019.
