 Gaussian 09, Revision A.02,
 Gaussian 09:  EM64L-G09RevA.02 11-Jun-2009

 ---------------------------------------------
 #P opt=(,maxcycle=400) HF/6-31G* MaxDisk=50GB
 ---------------------------------------------

 ------------------------------------------------------------------
 ModifiedRes Rotatable Bond Optimization on bme-nova.bme.utexas.edu
 ------------------------------------------------------------------
 Symbolic Z-matrix:
 Charge =  0 Multiplicity = 1

 SCF Done:  E(RHF) =  -903.962941189     A.U. after   16 cycles
 SCF Done:  E(RHF) =  -903.981431411     A.U. after   14 cycles
 SCF Done:  E(RHF) =  -903.990880699     A.U. after   15 cycles
 SCF Done:  E(RHF) =  -903.997704954     A.U. after   17 cycles
 SCF Done:  E(RHF) =  -903.998980737     A.U. after   14 cycles
 SCF Done:  E(RHF) =  -904.000979994     A.U. after   13 cycles
 SCF Done:  E(RHF) =  -904.001160442     A.U. after   14 cycles
 SCF Done:  E(RHF) =  -904.001599692     A.U. after   13 cycles
 SCF Done:  E(RHF) =  -904.001918906     A.U. after   13 cycles
 SCF Done:  E(RHF) =  -904.002393221     A.U. after   16 cycles
 SCF Done:  E(RHF) =  -904.002634202     A.U. after   13 cycles
 SCF Done:  E(RHF) =  -904.002687316     A.U. after   13 cycles
 SCF Done:  E(RHF) =  -904.002705054     A.U. after   12 cycles
 SCF Done:  E(RHF) =  -904.002716187     A.U. after   12 cycles
 SCF Done:  E(RHF) =  -904.002725536     A.U. after   12 cycles
 SCF Done:  E(RHF) =  -904.002727055     A.U. after   11 cycles
 SCF Done:  E(RHF) =  -904.002727376     A.U. after   10 cycles
 SCF Done:  E(RHF) =  -904.002727434     A.U. after    8 cycles
 SCF Done:  E(RHF) =  -904.002727456     A.U. after    9 cycles
 SCF Done:  E(RHF) =  -904.002727466     A.U. after    9 cycles
 Optimization completed.
    -- Stationary point found.

                         Standard orientation:
 ---------------------------------------------------------------------
 Center     Atomic      Atomic             Coordinates (Angstroms)
 Number     Number       Type             X           Y           Z
 ---------------------------------------------------------------------
      1          7           0        1.232455    0.889428   -0.276764
      2          1           0        1.661318    0.821088   -1.177968
      3          6           0        0.640636   -0.315706    0.240276
      4          1           0        0.498519   -0.197721    1.307628
      5          6           0        1.553250   -1.511130   -0.058635
      6          8           0        2.127824   -1.580954   -1.106280
      7          6           0       -0.718430   -0.600993   -0.411887
      8         16           0       -1.836801    0.832672   -0.157814
      9          6           0       -3.306851   -0.006061    0.061572
     10          7           0       -4.295822   -0.545539    0.217623
     11          1           0       -0.593540   -0.762341   -1.472645
     12          1           0       -1.176764   -1.476650    0.024303
     13          6           0        1.651321    1.927297    0.498673
     14          8           0        2.326566    2.825850    0.111019
     15          7           0        1.598526   -2.471550    0.884807
     16          1           0        1.284879    1.871855    1.524582
     17          1           0        1.225132   -2.346545    1.796793
     18          1           0        2.188496   -3.258426    0.724762
 ---------------------------------------------------------------------

 The electronic state is 1-A.
 Alpha  occ. eigenvalues --  -92.01662 -20.56432 -20.55027 -15.62407 -15.61323
 Alpha  occ. eigenvalues --  -15.59349 -11.38989 -11.36757 -11.33293 -11.31305
 Alpha  occ. eigenvalues --  -11.30565  -9.02539  -6.70835  -6.70650  -6.70447
 Alpha  occ. eigenvalues --   -1.43549  -1.41431  -1.27637  -1.25527  -1.24776
 Alpha  occ. eigenvalues --   -1.12402  -1.03389  -0.91521  -0.87515  -0.84167
 Alpha  occ. eigenvalues --   -0.78072  -0.73735  -0.71564  -0.68529  -0.68003
 Alpha  occ. eigenvalues --   -0.65766  -0.64287  -0.62753  -0.59496  -0.58428
 Alpha  occ. eigenvalues --   -0.57131  -0.56466  -0.53992  -0.52952  -0.47715
 Alpha  occ. eigenvalues --   -0.46159  -0.45025  -0.44621  -0.41527  -0.39107
 Alpha virt. eigenvalues --    0.11627   0.16274   0.17110   0.18904   0.20551
 Alpha virt. eigenvalues --    0.21007   0.22021   0.23149   0.23356   0.25720
 Alpha virt. eigenvalues --    0.27186   0.28734   0.31203   0.33362   0.37211

 Mulliken atomic charges:
              1
     1  N   -0.754951
     2  H    0.422889
     3  C   -0.085460
     4  H    0.210232
     5  C    0.766219
     6  O   -0.588326
     7  C   -0.500896
     8  S    0.310689
     9  C    0.079823
    10  N   -0.380641
    11  H    0.251554
    12  H    0.240336
    13  C    0.527881
    14  O   -0.540069
    15  N   -0.917281
    16  H    0.148463
    17  H    0.398615
    18  H    0.410922
 Sum of Mulliken atomic charges =   0.00000

 Dipole moment (field-independent basis, Debye):
    X=              1.4701    Y=             -4.0146    Z=              3.3609  Tot=              5.4381
 Quadrupole moment (field-independent basis, Debye-Ang):
   XX=           -100.6176   YY=            -76.3604   ZZ=            -66.6976
   XY=            -13.8384   XZ=              8.5483   YZ=             -5.8504

 Normal termination of Gaussian 09 at Mon Dec 30 09:42:35 2019.
