 Gaussian 09, Revision A.02,
 Gaussian 09:  EM64L-G09RevA.02 11-Jun-2009

 ---------------------------------------------
 #P opt=(,maxcycle=400) HF/6-31G* MaxDisk=50GB
 ---------------------------------------------

 ------------------------------------------------------------------
 ModifiedRes Rotatable Bond Optimization on bme-nova.bme.utexas.edu
 ------------------------------------------------------------------
 Symbolic Z-matrix:
 Charge =  0 Multiplicity = 1

 SCF Done:  E(RHF) =  -903.986354080     A.U. after   16 cycles
 SCF Done:  E(RHF) =  -904.001782497     A.U. after   14 cycles
 SCF Done:  E(RHF) =  -904.004191073     A.U. after   15 cycles
 SCF Done:  E(RHF) =  -904.004778494     A.U. after   16 cycles
 SCF Done:  E(RHF) =  -904.006098007     A.U. after   13 cycles
 SCF Done:  E(RHF) =  -904.006526379     A.U. after   13 cycles
 SCF Done:  E(RHF) =  -904.006675941     A.U. after   13 cycles
 SCF Done:  E(RHF) =  -904.007033728     A.U. after   13 cycles
 SCF Done:  E(RHF) =  -904.007386783     A.U. after   13 cycles
 SCF Done:  E(RHF) =  -904.008538244     A.U. after   16 cycles
 SCF Done:  E(RHF) =  -904.011082515     A.U. after   13 cycles
 SCF Done:  E(RHF) =  -904.011262457     A.U. after   13 cycles
 SCF Done:  E(RHF) =  -904.011329394     A.U. after   12 cycles
 SCF Done:  E(RHF) =  -904.011382603     A.U. after   12 cycles
 SCF Done:  E(RHF) =  -904.011450174     A.U. after   12 cycles
 SCF Done:  E(RHF) =  -904.011470590     A.U. after   12 cycles
 SCF Done:  E(RHF) =  -904.011478025     A.U. after   11 cycles
 SCF Done:  E(RHF) =  -904.011480469     A.U. after   11 cycles
 SCF Done:  E(RHF) =  -904.011481321     A.U. after   11 cycles
 SCF Done:  E(RHF) =  -904.011481506     A.U. after   10 cycles
 Optimization completed.
    -- Stationary point found.

                         Standard orientation:
 ---------------------------------------------------------------------
 Center     Atomic      Atomic             Coordinates (Angstroms)
 Number     Number       Type             X           Y           Z
 ---------------------------------------------------------------------
      1          7           0        0.972697   -0.886323    0.757615
      2          1           0        0.597051   -0.859971    1.680133
      3          6           0        0.605054    0.165555   -0.176185
      4          1           0        0.716351   -0.245210   -1.170311
      5          6           0        1.544233    1.374249   -0.029612
      6          8           0        1.191265    2.377641    0.523189
      7          6           0       -0.834762    0.613858    0.044335
      8         16           0       -1.956491   -0.821469   -0.177110
      9          6           0       -3.448595    0.001941   -0.102155
     10          7           0       -4.455931    0.527290   -0.053547
     11          1           0       -0.966649    1.028279    1.031633
     12          1           0       -1.092815    1.372137   -0.677951
     13          6           0        1.915721   -1.808420    0.474556
     14          8           0        2.538768   -1.848812   -0.547889
     15          7           0        2.763056    1.195672   -0.567072
     16          1           0        2.060297   -2.532714    1.273281
     17          1           0        3.054429    0.305583   -0.908752
     18          1           0        3.446272    1.905195   -0.421275
 ---------------------------------------------------------------------

 The electronic state is 1-A.
 Alpha  occ. eigenvalues --  -92.01090 -20.56944 -20.54873 -15.63317 -15.59693
 Alpha  occ. eigenvalues --  -15.58907 -11.38515 -11.37293 -11.32194 -11.30401
 Alpha  occ. eigenvalues --  -11.30071  -9.01998  -6.70307  -6.70117  -6.69913
 Alpha  occ. eigenvalues --   -1.43378  -1.41613  -1.28587  -1.24299  -1.23198
 Alpha  occ. eigenvalues --   -1.12245  -1.03304  -0.91357  -0.87052  -0.81772
 Alpha  occ. eigenvalues --   -0.76977  -0.75843  -0.71458  -0.69982  -0.67175
 Alpha  occ. eigenvalues --   -0.64517  -0.62831  -0.62084  -0.58995  -0.58407
 Alpha  occ. eigenvalues --   -0.57100  -0.56109  -0.53406  -0.52339  -0.47401
 Alpha  occ. eigenvalues --   -0.46509  -0.46143  -0.42869  -0.41764  -0.38697
 Alpha virt. eigenvalues --    0.12894   0.15866   0.17636   0.19444   0.20874
 Alpha virt. eigenvalues --    0.21181   0.22431   0.23474   0.24297   0.27396
 Alpha virt. eigenvalues --    0.28397   0.29669   0.32296   0.34511   0.37790

 Mulliken atomic charges:
              1
     1  N   -0.768339
     2  H    0.406881
     3  C   -0.100401
     4  H    0.253923
     5  C    0.775463
     6  O   -0.596796
     7  C   -0.492770
     8  S    0.286008
     9  C    0.084627
    10  N   -0.376519
    11  H    0.246048
    12  H    0.252405
    13  C    0.521819
    14  O   -0.579179
    15  N   -0.934306
    16  H    0.182739
    17  H    0.438985
    18  H    0.399412
 Sum of Mulliken atomic charges =   0.00000

 Dipole moment (field-independent basis, Debye):
    X=              4.1289    Y=             -2.0493    Z=              1.5077  Tot=              4.8498
 Quadrupole moment (field-independent basis, Debye-Ang):
   XX=            -89.2603   YY=            -79.2479   ZZ=            -67.5842
   XY=              6.4352   XZ=              2.5771   YZ=             -8.6402

 Normal termination of Gaussian 09 at Mon Dec 30 10:03:28 2019.
