 Gaussian 09, Revision A.02,
 Gaussian 09:  EM64L-G09RevA.02 11-Jun-2009

 ---------------------------------------------
 #P opt=(,maxcycle=400) HF/6-31G* MaxDisk=50GB
 ---------------------------------------------

 ------------------------------------------------------------------
 ModifiedRes Rotatable Bond Optimization on bme-nova.bme.utexas.edu
 ------------------------------------------------------------------
 Symbolic Z-matrix:
 Charge =  0 Multiplicity = 1

 SCF Done:  E(RHF) =  -903.978635462     A.U. after   16 cycles
 SCF Done:  E(RHF) =  -903.994283735     A.U. after   17 cycles
 SCF Done:  E(RHF) =  -903.996847825     A.U. after   17 cycles
 SCF Done:  E(RHF) =  -904.000448149     A.U. after   17 cycles
 SCF Done:  E(RHF) =  -904.002689922     A.U. after   17 cycles
 SCF Done:  E(RHF) =  -904.004549138     A.U. after   13 cycles
 SCF Done:  E(RHF) =  -904.004716688     A.U. after   14 cycles
 SCF Done:  E(RHF) =  -904.005515456     A.U. after   14 cycles
 SCF Done:  E(RHF) =  -904.005654221     A.U. after   14 cycles
 SCF Done:  E(RHF) =  -904.005867633     A.U. after   15 cycles
 SCF Done:  E(RHF) =  -904.005948186     A.U. after   13 cycles
 SCF Done:  E(RHF) =  -904.005963608     A.U. after   12 cycles
 SCF Done:  E(RHF) =  -904.005968383     A.U. after   11 cycles
 SCF Done:  E(RHF) =  -904.005971890     A.U. after   11 cycles
 SCF Done:  E(RHF) =  -904.005973236     A.U. after   10 cycles
 SCF Done:  E(RHF) =  -904.005973560     A.U. after   10 cycles
 SCF Done:  E(RHF) =  -904.005973630     A.U. after    8 cycles
 Optimization completed.
    -- Stationary point found.

                         Standard orientation:
 ---------------------------------------------------------------------
 Center     Atomic      Atomic             Coordinates (Angstroms)
 Number     Number       Type             X           Y           Z
 ---------------------------------------------------------------------
      1          7           0       -1.057678    1.146496   -0.747793
      2          1           0       -0.884186    1.601908   -1.615973
      3          6           0       -0.683119   -0.252708   -0.627946
      4          1           0       -0.519041   -0.603259   -1.640906
      5          6           0       -1.798893   -1.152394   -0.074603
      6          8           0       -1.522431   -2.177412    0.475487
      7          6           0        0.596748   -0.484581    0.179815
      8         16           0        1.949694    0.502288   -0.574566
      9          6           0        3.293785   -0.255447    0.149171
     10          7           0        4.211096   -0.741065    0.613721
     11          1           0        0.468079   -0.184702    1.206401
     12          1           0        0.861025   -1.527252    0.139427
     13          6           0       -1.322541    1.931825    0.329040
     14          8           0       -1.448249    1.522443    1.441285
     15          7           0       -3.063997   -0.781674   -0.366363
     16          1           0       -1.437413    2.983933    0.071798
     17          1           0       -3.273843    0.160202   -0.598499
     18          1           0       -3.786111   -1.314166    0.066829
 ---------------------------------------------------------------------

 The electronic state is 1-A.
 Alpha  occ. eigenvalues --  -92.00583 -20.57035 -20.54730 -15.63341 -15.59946
 Alpha  occ. eigenvalues --  -15.58470 -11.38371 -11.37458 -11.32540 -11.29705
 Alpha  occ. eigenvalues --  -11.29252  -9.01515  -6.69836  -6.69639  -6.69443
 Alpha  occ. eigenvalues --   -1.43566  -1.41698  -1.28660  -1.23867  -1.23115
 Alpha  occ. eigenvalues --   -1.11557  -1.03115  -0.91465  -0.86634  -0.79704
 Alpha  occ. eigenvalues --   -0.79477  -0.75547  -0.70800  -0.68040  -0.67472
 Alpha  occ. eigenvalues --   -0.65181  -0.62539  -0.61384  -0.60461  -0.58263
 Alpha  occ. eigenvalues --   -0.55973  -0.55491  -0.53002  -0.51987  -0.46697
 Alpha  occ. eigenvalues --   -0.46166  -0.45696  -0.43375  -0.42068  -0.38369
 Alpha virt. eigenvalues --    0.12849   0.16461   0.17142   0.18717   0.21440
 Alpha virt. eigenvalues --    0.21687   0.22299   0.23767   0.25182   0.26951
 Alpha virt. eigenvalues --    0.27768   0.28774   0.31103   0.35423   0.38405

 Mulliken atomic charges:
              1
     1  N   -0.803559
     2  H    0.402423
     3  C   -0.073029
     4  H    0.241153
     5  C    0.782966
     6  O   -0.589993
     7  C   -0.494813
     8  S    0.255235
     9  C    0.090565
    10  N   -0.377403
    11  H    0.269568
    12  H    0.265160
    13  C    0.503383
    14  O   -0.541267
    15  N   -0.907035
    16  H    0.176075
    17  H    0.399237
    18  H    0.401332
 Sum of Mulliken atomic charges =   0.00000

 Dipole moment (field-independent basis, Debye):
    X=             -5.1690    Y=              4.0377    Z=             -5.0016  Tot=              8.2485
 Quadrupole moment (field-independent basis, Debye-Ang):
   XX=            -81.4337   YY=            -73.2509   ZZ=            -73.6950
   XY=             -0.1942   XZ=              1.7199   YZ=             -3.1799

 Normal termination of Gaussian 09 at Mon Dec 30 09:51:26 2019.
