 Gaussian 09, Revision A.02,
 Gaussian 09:  EM64L-G09RevA.02 11-Jun-2009

 ---------------------------------------------
 #P opt=(,maxcycle=400) HF/6-31G* MaxDisk=50GB
 ---------------------------------------------

 ------------------------------------------------------------------
 ModifiedRes Rotatable Bond Optimization on bme-nova.bme.utexas.edu
 ------------------------------------------------------------------
 Symbolic Z-matrix:
 Charge =  0 Multiplicity = 1

 SCF Done:  E(RHF) =  -903.987353187     A.U. after   16 cycles
 SCF Done:  E(RHF) =  -904.003143079     A.U. after   15 cycles
 SCF Done:  E(RHF) =  -904.003806350     A.U. after   14 cycles
 SCF Done:  E(RHF) =  -904.005396021     A.U. after   16 cycles
 SCF Done:  E(RHF) =  -904.004907369     A.U. after   15 cycles
 SCF Done:  E(RHF) =  -904.005933993     A.U. after   14 cycles
 SCF Done:  E(RHF) =  -904.007356111     A.U. after   16 cycles
 SCF Done:  E(RHF) =  -904.008509164     A.U. after   17 cycles
 SCF Done:  E(RHF) =  -904.005353810     A.U. after   15 cycles
 SCF Done:  E(RHF) =  -904.010964572     A.U. after   15 cycles
 SCF Done:  E(RHF) =  -904.010849485     A.U. after   14 cycles
 SCF Done:  E(RHF) =  -904.011848992     A.U. after   15 cycles
 SCF Done:  E(RHF) =  -904.011981571     A.U. after   14 cycles
 SCF Done:  E(RHF) =  -904.011992116     A.U. after   12 cycles
 SCF Done:  E(RHF) =  -904.012011316     A.U. after   13 cycles
 SCF Done:  E(RHF) =  -904.012021907     A.U. after   12 cycles
 SCF Done:  E(RHF) =  -904.012024865     A.U. after   12 cycles
 SCF Done:  E(RHF) =  -904.012025994     A.U. after   10 cycles
 SCF Done:  E(RHF) =  -904.012026180     A.U. after    9 cycles
 Optimization completed.
    -- Stationary point found.

                         Standard orientation:
 ---------------------------------------------------------------------
 Center     Atomic      Atomic             Coordinates (Angstroms)
 Number     Number       Type             X           Y           Z
 ---------------------------------------------------------------------
      1          7           0        0.710795    0.705465   -1.055304
      2          1           0        0.524923    0.438321   -1.995894
      3          6           0        0.433952   -0.236635    0.013609
      4          1           0        0.158514    0.340904    0.885327
      5          6           0        1.694386   -1.057663    0.334304
      6          8           0        1.820586   -2.185890   -0.054832
      7          6           0       -0.693720   -1.194980   -0.356503
      8         16           0       -2.287855   -0.400689   -0.763636
      9          6           0       -2.663501    0.296986    0.747877
     10          7           0       -2.926300    0.768639    1.748835
     11          1           0       -0.439148   -1.766096   -1.238822
     12          1           0       -0.851360   -1.901739    0.442977
     13          6           0        1.230024    1.927049   -0.825429
     14          8           0        1.567188    2.329818    0.251511
     15          7           0        2.610427   -0.404995    1.068647
     16          1           0        1.321733    2.530392   -1.726294
     17          1           0        2.527699    0.573559    1.242362
     18          1           0        3.489821   -0.848050    1.216689
 ---------------------------------------------------------------------

 The electronic state is 1-A.
 Alpha  occ. eigenvalues --  -92.01318 -20.56205 -20.54430 -15.62623 -15.59239
 Alpha  occ. eigenvalues --  -15.59193 -11.37821 -11.36812 -11.31508 -11.30577
 Alpha  occ. eigenvalues --  -11.30340  -9.02222  -6.70534  -6.70338  -6.70141
 Alpha  occ. eigenvalues --   -1.42669  -1.41116  -1.27938  -1.24610  -1.22734
 Alpha  occ. eigenvalues --   -1.12235  -1.03036  -0.91641  -0.86470  -0.81127
 Alpha  occ. eigenvalues --   -0.76783  -0.75109  -0.70866  -0.70103  -0.66465
 Alpha  occ. eigenvalues --   -0.63584  -0.62642  -0.61842  -0.59555  -0.57613
 Alpha  occ. eigenvalues --   -0.56975  -0.55490  -0.53821  -0.52752  -0.46784
 Alpha  occ. eigenvalues --   -0.46529  -0.45728  -0.42430  -0.40963  -0.39143
 Alpha virt. eigenvalues --    0.12462   0.16572   0.18349   0.19276   0.20446
 Alpha virt. eigenvalues --    0.21506   0.22786   0.23873   0.24869   0.27226
 Alpha virt. eigenvalues --    0.29135   0.29872   0.32482   0.34211   0.37841

 Mulliken atomic charges:
              1
     1  N   -0.758005
     2  H    0.399538
     3  C   -0.077347
     4  H    0.259618
     5  C    0.772228
     6  O   -0.605028
     7  C   -0.519365
     8  S    0.282980
     9  C    0.093545
    10  N   -0.376967
    11  H    0.243618
    12  H    0.257294
    13  C    0.523403
    14  O   -0.580439
    15  N   -0.931142
    16  H    0.178131
    17  H    0.440748
    18  H    0.397190
 Sum of Mulliken atomic charges =   0.00000

 Dipole moment (field-independent basis, Debye):
    X=              1.8528    Y=             -0.2891    Z=             -4.0632  Tot=              4.4751
 Quadrupole moment (field-independent basis, Debye-Ang):
   XX=            -75.2858   YY=            -82.7360   ZZ=            -68.4546
   XY=              6.2166   XZ=              7.0725   YZ=             -7.7278

 Normal termination of Gaussian 09 at Tue Dec 31 09:07:56 2019.
