 Gaussian 09, Revision A.02,
 Gaussian 09:  EM64L-G09RevA.02 11-Jun-2009

 ------------------------------------------------------------------
 #P MP2/6-311++G** SP SCF=(qc,maxcycle=800) Guess=Indo MaxDisk=50GB
 ------------------------------------------------------------------

 --------------------------------------------------------------------
 ModifiedRes Rotatable Bond SP Calculation on bme-nova.bme.utexas.edu
 --------------------------------------------------------------------
 Symbolic Z-matrix:
 Charge =  0 Multiplicity = 1

                         Standard orientation:
 ---------------------------------------------------------------------
 Center     Atomic      Atomic             Coordinates (Angstroms)
 Number     Number       Type             X           Y           Z
 ---------------------------------------------------------------------
      1          7           0       -1.161772    0.938073    0.794614
      2          1           0       -1.607942    0.706396    1.677532
      3          6           0       -0.869028   -0.131764   -0.182926
      4          1           0       -0.927995    0.322211   -1.181364
      5          6           0       -1.923000   -1.260304   -0.073857
      6          8           0       -1.646390   -2.328846    0.472934
      7          6           0        0.539910   -0.728044    0.035438
      8         16           0        1.864610    0.544419   -0.120813
      9          6           0        3.212352   -0.490844   -0.047698
     10          7           0        4.139839   -1.229812   -0.026676
     11          1           0        0.606734   -1.184585    1.025603
     12          1           0        0.721843   -1.494611   -0.721828
     13          6           0       -1.040262    2.266271    0.498615
     14          8           0       -0.671471    2.679372   -0.602418
     15          7           0       -3.141183   -0.983232   -0.612130
     16          1           0       -1.296462    2.941014    1.330792
     17          1           0       -3.326663   -0.098822   -1.070265
     18          1           0       -3.838384   -1.713609   -0.559680
 ---------------------------------------------------------------------

 SCF Done:  E(RHF) =  -904.154944158     a.u. after   11 cycles
 E2 =    -0.1756519457D+01 EUMP2 =    -0.90591146361500D+03

 The electronic state is 1-A.
 Alpha  occ. eigenvalues --  -92.01594 -20.56120 -20.55833 -15.63499 -15.62523
 Alpha  occ. eigenvalues --  -15.59082 -11.40028 -11.39063 -11.33874 -11.30653
 Alpha  occ. eigenvalues --  -11.30359  -9.01729  -6.69978  -6.69797  -6.69637
 Alpha  occ. eigenvalues --   -1.41814  -1.40869  -1.27633  -1.24674  -1.21766
 Alpha  occ. eigenvalues --   -1.11327  -1.03412  -0.91434  -0.86203  -0.82724
 Alpha  occ. eigenvalues --   -0.78709  -0.74760  -0.70706  -0.70092  -0.67966
 Alpha  occ. eigenvalues --   -0.64271  -0.62773  -0.62370  -0.59885  -0.58253
 Alpha  occ. eigenvalues --   -0.56139  -0.55934  -0.52442  -0.50874  -0.47141
 Alpha  occ. eigenvalues --   -0.46479  -0.45053  -0.44663  -0.43061  -0.37921
 Alpha virt. eigenvalues --    0.02123   0.03419   0.05251   0.05642   0.06610
 Alpha virt. eigenvalues --    0.07546   0.08433   0.08865   0.09881   0.11063
 Alpha virt. eigenvalues --    0.11876   0.12219   0.12411   0.13192   0.13431

 Mulliken atomic charges:
              1
     1  N   -0.132221
     2  H    0.361372
     3  C   -0.060349
     4  H    0.244117
     5  C    0.103663
     6  O   -0.370375
     7  C   -0.579933
     8  S   -0.005510
     9  C    0.057286
    10  N   -0.229136
    11  H    0.246405
    12  H    0.237290
    13  C    0.204158
    14  O   -0.405894
    15  N   -0.497360
    16  H    0.146651
    17  H    0.307815
    18  H    0.372021
 Sum of Mulliken atomic charges =   0.00000

 Dipole moment (field-independent basis, Debye):
    X=             -7.7547    Y=              1.7787    Z=              1.1415  Tot=              8.0376
 Quadrupole moment (field-independent basis, Debye-Ang):
   XX=            -77.6671   YY=            -87.9463   ZZ=            -68.6225
   XY=              3.9849   XZ=              1.4462   YZ=             10.9746

 Normal termination of Gaussian 09 at Mon Dec 30 09:58:35 2019.
