 Gaussian 09, Revision A.02,
 Gaussian 09:  EM64L-G09RevA.02 11-Jun-2009

 ---------------------------------------------
 #P opt=(,maxcycle=400) HF/6-31G* MaxDisk=50GB
 ---------------------------------------------

 ------------------------------------------------------------------
 ModifiedRes Rotatable Bond Optimization on bme-nova.bme.utexas.edu
 ------------------------------------------------------------------
 Symbolic Z-matrix:
 Charge =  0 Multiplicity = 1

 SCF Done:  E(RHF) =  -903.992628620     A.U. after   16 cycles
 SCF Done:  E(RHF) =  -904.007404240     A.U. after   14 cycles
 SCF Done:  E(RHF) =  -904.003130815     A.U. after   14 cycles
 SCF Done:  E(RHF) =  -904.010522869     A.U. after   13 cycles
 SCF Done:  E(RHF) =  -904.010455426     A.U. after   13 cycles
 SCF Done:  E(RHF) =  -904.011370955     A.U. after   13 cycles
 SCF Done:  E(RHF) =  -904.011208091     A.U. after   13 cycles
 SCF Done:  E(RHF) =  -904.011444028     A.U. after   13 cycles
 SCF Done:  E(RHF) =  -904.011464547     A.U. after   12 cycles
 SCF Done:  E(RHF) =  -904.011475662     A.U. after   11 cycles
 SCF Done:  E(RHF) =  -904.011479349     A.U. after   11 cycles
 SCF Done:  E(RHF) =  -904.011480676     A.U. after   10 cycles
 SCF Done:  E(RHF) =  -904.011481146     A.U. after    9 cycles
 SCF Done:  E(RHF) =  -904.011481379     A.U. after    9 cycles
 SCF Done:  E(RHF) =  -904.011481440     A.U. after    9 cycles
 SCF Done:  E(RHF) =  -904.011481487     A.U. after    9 cycles
 SCF Done:  E(RHF) =  -904.011481519     A.U. after    9 cycles
 Optimization completed.
    -- Stationary point found.

                         Standard orientation:
 ---------------------------------------------------------------------
 Center     Atomic      Atomic             Coordinates (Angstroms)
 Number     Number       Type             X           Y           Z
 ---------------------------------------------------------------------
      1          7           0        0.972417   -0.886558    0.757490
      2          1           0        0.596437   -0.860445    1.679876
      3          6           0        0.605080    0.165516   -0.176222
      4          1           0        0.716530   -0.245167   -1.170358
      5          6           0        1.544289    1.374180   -0.029472
      6          8           0        1.191341    2.377469    0.523507
      7          6           0       -0.834733    0.613937    0.044075
      8         16           0       -1.956481   -0.821372   -0.177243
      9          6           0       -3.448544    0.002077   -0.102089
     10          7           0       -4.456007    0.527204   -0.053382
     11          1           0       -0.966716    1.028500    1.031297
     12          1           0       -1.092689    1.372124   -0.678350
     13          6           0        1.915537   -1.808566    0.474516
     14          8           0        2.539096   -1.848601   -0.547645
     15          7           0        2.763057    1.195836   -0.567218
     16          1           0        2.059716   -2.533167    1.273027
     17          1           0        3.054588    0.305691   -0.908590
     18          1           0        3.446298    1.905240   -0.420985
 ---------------------------------------------------------------------

 The electronic state is 1-A.
 Alpha  occ. eigenvalues --  -92.01090 -20.56944 -20.54874 -15.63318 -15.59692
 Alpha  occ. eigenvalues --  -15.58908 -11.38515 -11.37293 -11.32195 -11.30401
 Alpha  occ. eigenvalues --  -11.30072  -9.01999  -6.70308  -6.70118  -6.69914
 Alpha  occ. eigenvalues --   -1.43377  -1.41614  -1.28588  -1.24299  -1.23197
 Alpha  occ. eigenvalues --   -1.12245  -1.03305  -0.91357  -0.87053  -0.81771
 Alpha  occ. eigenvalues --   -0.76977  -0.75843  -0.71458  -0.69981  -0.67175
 Alpha  occ. eigenvalues --   -0.64517  -0.62831  -0.62085  -0.58995  -0.58406
 Alpha  occ. eigenvalues --   -0.57101  -0.56109  -0.53406  -0.52338  -0.47402
 Alpha  occ. eigenvalues --   -0.46509  -0.46143  -0.42870  -0.41764  -0.38697
 Alpha virt. eigenvalues --    0.12893   0.15867   0.17634   0.19443   0.20874
 Alpha virt. eigenvalues --    0.21182   0.22430   0.23472   0.24299   0.27396
 Alpha virt. eigenvalues --    0.28398   0.29670   0.32298   0.34511   0.37791

 Mulliken atomic charges:
              1
     1  N   -0.768348
     2  H    0.406893
     3  C   -0.100366
     4  H    0.253912
     5  C    0.775418
     6  O   -0.596769
     7  C   -0.492804
     8  S    0.286010
     9  C    0.084632
    10  N   -0.376524
    11  H    0.246073
    12  H    0.252401
    13  C    0.521815
    14  O   -0.579185
    15  N   -0.934270
    16  H    0.182739
    17  H    0.438980
    18  H    0.399393
 Sum of Mulliken atomic charges =   0.00000

 Dipole moment (field-independent basis, Debye):
    X=              4.1276    Y=             -2.0502    Z=              1.5075  Tot=              4.8490
 Quadrupole moment (field-independent basis, Debye-Ang):
   XX=            -89.2667   YY=            -79.2424   ZZ=            -67.5874
   XY=              6.4338   XZ=              2.5794   YZ=             -8.6391

 Normal termination of Gaussian 09 at Mon Dec 30 09:47:16 2019.
