 Gaussian 09, Revision A.02,
 Gaussian 09:  EM64L-G09RevA.02 11-Jun-2009

 ------------------------------------------------------------------
 #P MP2/6-311++G** SP SCF=(qc,maxcycle=800) Guess=Indo MaxDisk=50GB
 ------------------------------------------------------------------

 --------------------------------------------------------------------
 ModifiedRes Rotatable Bond SP Calculation on bme-nova.bme.utexas.edu
 --------------------------------------------------------------------
 Symbolic Z-matrix:
 Charge =  0 Multiplicity = 1

                         Standard orientation:
 ---------------------------------------------------------------------
 Center     Atomic      Atomic             Coordinates (Angstroms)
 Number     Number       Type             X           Y           Z
 ---------------------------------------------------------------------
      1          7           0        0.988994   -0.907318    0.755534
      2          1           0        0.599583   -0.898028    1.693906
      3          6           0        0.616062    0.160782   -0.195432
      4          1           0        0.743736   -0.257129   -1.203476
      5          6           0        1.558827    1.375456   -0.020932
      6          8           0        1.164071    2.394193    0.550706
      7          6           0       -0.849860    0.601275   -0.001435
      8         16           0       -1.989853   -0.838684   -0.135820
      9          6           0       -3.472896   -0.008587   -0.105731
     10          7           0       -4.520893    0.544587   -0.087061
     11          1           0       -0.981846    1.077684    0.972666
     12          1           0       -1.112745    1.323839   -0.777616
     13          6           0        1.958167   -1.827542    0.473442
     14          8           0        2.599459   -1.829550   -0.583367
     15          7           0        2.810668    1.228719   -0.531317
     16          1           0        2.119542   -2.572688    1.268328
     17          1           0        3.103264    0.348014   -0.945516
     18          1           0        3.444702    2.009897   -0.433445
 ---------------------------------------------------------------------

 SCF Done:  E(RHF) =  -904.162313012     a.u. after   11 cycles
 E2 =    -0.1755620393D+01 EUMP2 =    -0.90591793340581D+03

 The electronic state is 1-A.
 Alpha  occ. eigenvalues --  -92.02897 -20.56628 -20.54860 -15.63977 -15.60628
 Alpha  occ. eigenvalues --  -15.60122 -11.39836 -11.38763 -11.33873 -11.31628
 Alpha  occ. eigenvalues --  -11.31444  -9.03041  -6.71299  -6.71117  -6.70962
 Alpha  occ. eigenvalues --   -1.41761  -1.40309  -1.27952  -1.23153  -1.22790
 Alpha  occ. eigenvalues --   -1.12267  -1.03798  -0.91688  -0.87241  -0.81638
 Alpha  occ. eigenvalues --   -0.76861  -0.75794  -0.71662  -0.70205  -0.67730
 Alpha  occ. eigenvalues --   -0.64288  -0.62821  -0.62229  -0.58987  -0.58254
 Alpha  occ. eigenvalues --   -0.56987  -0.56692  -0.53456  -0.51911  -0.47825
 Alpha  occ. eigenvalues --   -0.47065  -0.45893  -0.43367  -0.42729  -0.39122
 Alpha virt. eigenvalues --    0.02706   0.04082   0.05144   0.05488   0.07127
 Alpha virt. eigenvalues --    0.07516   0.08523   0.08756   0.09472   0.10669
 Alpha virt. eigenvalues --    0.10833   0.11791   0.12583   0.12808   0.13061

 Mulliken atomic charges:
              1
     1  N   -0.128466
     2  H    0.338832
     3  C   -0.368734
     4  H    0.274300
     5  C    0.258939
     6  O   -0.402870
     7  C   -0.465940
     8  S    0.133720
     9  C   -0.115909
    10  N   -0.197171
    11  H    0.258207
    12  H    0.237170
    13  C    0.287687
    14  O   -0.452146
    15  N   -0.504514
    16  H    0.159945
    17  H    0.319074
    18  H    0.367876
 Sum of Mulliken atomic charges =   0.00000

 Dipole moment (field-independent basis, Debye):
    X=              4.2279    Y=             -2.2756    Z=              1.3255  Tot=              4.9811
 Quadrupole moment (field-independent basis, Debye-Ang):
   XX=            -93.1087   YY=            -80.5847   ZZ=            -68.8205
   XY=              7.3872   XZ=              2.1335   YZ=            -10.1551

 Normal termination of Gaussian 09 at Tue Dec 31 08:59:29 2019.
