 Gaussian 09, Revision A.02,
 Gaussian 09:  EM64L-G09RevA.02 11-Jun-2009

 ------------------------------------------------------------------
 #P MP2/6-311++G** SP SCF=(qc,maxcycle=800) Guess=Indo MaxDisk=50GB
 ------------------------------------------------------------------

 --------------------------------------------------------------------
 ModifiedRes Rotatable Bond SP Calculation on bme-nova.bme.utexas.edu
 --------------------------------------------------------------------
 Symbolic Z-matrix:
 Charge =  0 Multiplicity = 1

                         Standard orientation:
 ---------------------------------------------------------------------
 Center     Atomic      Atomic             Coordinates (Angstroms)
 Number     Number       Type             X           Y           Z
 ---------------------------------------------------------------------
      1          7           0       -1.678294   -0.534848   -1.066200
      2          1           0       -1.779911   -0.197980   -2.019112
      3          6           0       -0.487642   -0.148498   -0.281653
      4          1           0       -0.374299   -0.892022    0.519457
      5          6           0       -0.705388    1.249899    0.346721
      6          8           0       -0.238398    2.258802   -0.188581
      7          6           0        0.762460   -0.165348   -1.190781
      8         16           0        2.276262    0.511659   -0.367748
      9          6           0        2.676905   -0.880127    0.524293
     10          7           0        2.959541   -1.871031    1.111185
     11          1           0        0.986048   -1.183891   -1.518819
     12          1           0        0.570625    0.448937   -2.073973
     13          6           0       -2.760521   -1.132554   -0.484590
     14          8           0       -2.817479   -1.406537    0.719040
     15          7           0       -1.453910    1.269741    1.481921
     16          1           0       -3.581974   -1.356451   -1.183624
     17          1           0       -1.897771    0.421676    1.822859
     18          1           0       -1.602136    2.167812    1.921218
 ---------------------------------------------------------------------

 SCF Done:  E(RHF) =  -904.160426363     a.u. after   11 cycles
 E2 =    -0.1758403856D+01 EUMP2 =    -0.90591883021837D+03

 The electronic state is 1-A.
 Alpha  occ. eigenvalues --  -92.02465 -20.56208 -20.54247 -15.63652 -15.60165
 Alpha  occ. eigenvalues --  -15.59628 -11.39409 -11.38113 -11.33043 -11.31622
 Alpha  occ. eigenvalues --  -11.31175  -9.02555  -6.70788  -6.70609  -6.70456
 Alpha  occ. eigenvalues --   -1.41295  -1.39745  -1.27460  -1.22672  -1.22426
 Alpha  occ. eigenvalues --   -1.11876  -1.02819  -0.91948  -0.86575  -0.81199
 Alpha  occ. eigenvalues --   -0.76822  -0.75050  -0.71106  -0.69325  -0.67397
 Alpha  occ. eigenvalues --   -0.63552  -0.62714  -0.61926  -0.58274  -0.57286
 Alpha  occ. eigenvalues --   -0.56749  -0.56312  -0.53228  -0.51770  -0.47263
 Alpha  occ. eigenvalues --   -0.47007  -0.45126  -0.43034  -0.42333  -0.38464
 Alpha virt. eigenvalues --    0.02345   0.04507   0.04803   0.05735   0.07066
 Alpha virt. eigenvalues --    0.07938   0.08340   0.08963   0.09821   0.10984
 Alpha virt. eigenvalues --    0.11126   0.11913   0.12477   0.13002   0.13415

 Mulliken atomic charges:
              1
     1  N   -0.072547
     2  H    0.331705
     3  C   -0.416524
     4  H    0.344827
     5  C   -0.093465
     6  O   -0.380794
     7  C   -0.508179
     8  S    0.730094
     9  C   -0.500769
    10  N   -0.167059
    11  H    0.237123
    12  H    0.242764
    13  C    0.305737
    14  O   -0.443169
    15  N   -0.422806
    16  H    0.151909
    17  H    0.313230
    18  H    0.347923
 Sum of Mulliken atomic charges =   0.00000

 Dipole moment (field-independent basis, Debye):
    X=             -3.7305    Y=              0.8764    Z=             -3.9855  Tot=              5.5290
 Quadrupole moment (field-independent basis, Debye-Ang):
   XX=            -77.5803   YY=            -86.8919   ZZ=            -64.6340
   XY=              2.9502   XZ=              1.5761   YZ=             11.6514

 Normal termination of Gaussian 09 at Tue Dec 31 09:04:01 2019.
