 Gaussian 09, Revision A.02,
 Gaussian 09:  EM64L-G09RevA.02 11-Jun-2009

 ---------------------------------------------
 #P opt=(,maxcycle=400) HF/6-31G* MaxDisk=50GB
 ---------------------------------------------

 ------------------------------------------------------------------
 ModifiedRes Rotatable Bond Optimization on bme-nova.bme.utexas.edu
 ------------------------------------------------------------------
 Symbolic Z-matrix:
 Charge =  0 Multiplicity = 1

 SCF Done:  E(RHF) =  -903.967148014     A.U. after   16 cycles
 SCF Done:  E(RHF) =  -903.983148203     A.U. after   16 cycles
 SCF Done:  E(RHF) =  -903.984598607     A.U. after   16 cycles
 SCF Done:  E(RHF) =  -903.991751578     A.U. after   16 cycles
 SCF Done:  E(RHF) =  -903.993151707     A.U. after   15 cycles
 SCF Done:  E(RHF) =  -903.994524394     A.U. after   16 cycles
 SCF Done:  E(RHF) =  -903.995895354     A.U. after   14 cycles
 SCF Done:  E(RHF) =  -903.995846736     A.U. after   14 cycles
 SCF Done:  E(RHF) =  -903.997044514     A.U. after   14 cycles
 SCF Done:  E(RHF) =  -903.998348924     A.U. after   17 cycles
 SCF Done:  E(RHF) =  -904.008998403     A.U. after   16 cycles
 SCF Done:  E(RHF) =  -904.009372689     A.U. after   16 cycles
 SCF Done:  E(RHF) =  -904.009616642     A.U. after   13 cycles
 SCF Done:  E(RHF) =  -904.009779739     A.U. after   13 cycles
 SCF Done:  E(RHF) =  -904.009854152     A.U. after   13 cycles
 SCF Done:  E(RHF) =  -904.009881960     A.U. after   12 cycles
 SCF Done:  E(RHF) =  -904.009888643     A.U. after   11 cycles
 SCF Done:  E(RHF) =  -904.009890480     A.U. after   11 cycles
 SCF Done:  E(RHF) =  -904.009890980     A.U. after   11 cycles
 SCF Done:  E(RHF) =  -904.009891027     A.U. after    8 cycles
 Optimization completed.
    -- Stationary point found.

                         Standard orientation:
 ---------------------------------------------------------------------
 Center     Atomic      Atomic             Coordinates (Angstroms)
 Number     Number       Type             X           Y           Z
 ---------------------------------------------------------------------
      1          7           0        0.605854    0.830518    1.035050
      2          1           0        0.030638    0.991800    1.831859
      3          6           0        0.359887   -0.383809    0.280376
      4          1           0       -0.163574   -1.052197    0.954452
      5          6           0        1.644790   -1.135267   -0.100754
      6          8           0        1.670257   -1.835794   -1.070597
      7          6           0       -0.493420   -0.192113   -0.978662
      8         16           0       -2.093961    0.644002   -0.687422
      9          6           0       -2.805130   -0.456534    0.407767
     10          7           0       -3.272026   -1.169499    1.161645
     11          1           0        0.011181    0.445353   -1.689032
     12          1           0       -0.673265   -1.145549   -1.444815
     13          6           0        1.207179    1.916986    0.486110
     14          8           0        1.761394    1.916974   -0.570317
     15          7           0        2.663436   -1.047948    0.779075
     16          1           0        1.160820    2.798311    1.124472
     17          1           0        2.698409   -0.314447    1.446635
     18          1           0        3.525280   -1.463820    0.503078
 ---------------------------------------------------------------------

 The electronic state is 1-A.
 Alpha  occ. eigenvalues --  -92.00941 -20.56717 -20.54283 -15.62656 -15.59543
 Alpha  occ. eigenvalues --  -15.59379 -11.37957 -11.37050 -11.31818 -11.30531
 Alpha  occ. eigenvalues --  -11.29383  -9.01845  -6.70158  -6.69951  -6.69763
 Alpha  occ. eigenvalues --   -1.43174  -1.41239  -1.28144  -1.24816  -1.22700
 Alpha  occ. eigenvalues --   -1.11602  -1.02916  -0.91727  -0.86108  -0.79493
 Alpha  occ. eigenvalues --   -0.79093  -0.74902  -0.70781  -0.67557  -0.65925
 Alpha  occ. eigenvalues --   -0.65227  -0.63872  -0.61427  -0.59225  -0.58202
 Alpha  occ. eigenvalues --   -0.56283  -0.55227  -0.53721  -0.52861  -0.46423
 Alpha  occ. eigenvalues --   -0.46204  -0.45615  -0.42812  -0.41967  -0.38870
 Alpha virt. eigenvalues --    0.12902   0.16139   0.17407   0.19880   0.20522
 Alpha virt. eigenvalues --    0.20993   0.22756   0.23572   0.26628   0.27670
 Alpha virt. eigenvalues --    0.28328   0.28826   0.30889   0.33491   0.39115

 Mulliken atomic charges:
              1
     1  N   -0.785267
     2  H    0.403179
     3  C   -0.067642
     4  H    0.248571
     5  C    0.785309
     6  O   -0.596561
     7  C   -0.516380
     8  S    0.273489
     9  C    0.087607
    10  N   -0.387963
    11  H    0.268126
    12  H    0.267498
    13  C    0.499776
    14  O   -0.547515
    15  N   -0.908274
    16  H    0.174424
    17  H    0.400862
    18  H    0.400762
 Sum of Mulliken atomic charges =   0.00000

 Dipole moment (field-independent basis, Debye):
    X=              1.9424    Y=              2.8499    Z=              3.3232  Tot=              4.7894
 Quadrupole moment (field-independent basis, Debye-Ang):
   XX=            -78.6601   YY=            -76.9073   ZZ=            -70.7637
   XY=             -5.8049   XZ=             13.9096   YZ=              4.7300

 Normal termination of Gaussian 09 at Mon Dec 30 09:53:05 2019.
