 Gaussian 09, Revision A.02,
 Gaussian 09:  EM64L-G09RevA.02 11-Jun-2009

 ------------------------------------------------------------------
 #P MP2/6-311++G** SP SCF=(qc,maxcycle=800) Guess=Indo MaxDisk=50GB
 ------------------------------------------------------------------

 --------------------------------------------------------------------
 ModifiedRes Rotatable Bond SP Calculation on bme-nova.bme.utexas.edu
 --------------------------------------------------------------------
 Symbolic Z-matrix:
 Charge =  0 Multiplicity = 1

                         Standard orientation:
 ---------------------------------------------------------------------
 Center     Atomic      Atomic             Coordinates (Angstroms)
 Number     Number       Type             X           Y           Z
 ---------------------------------------------------------------------
      1          7           0       -1.066362    1.143337   -0.791461
      2          1           0       -1.110036    1.528877   -1.730944
      3          6           0       -0.788140   -0.301237   -0.644340
      4          1           0       -0.719075   -0.711430   -1.658949
      5          6           0       -1.946112   -1.003041    0.115602
      6          8           0       -1.830570   -1.349392    1.290025
      7          6           0        0.536149   -0.557299    0.114797
      8         16           0        1.940389    0.222071   -0.782709
      9          6           0        3.236646   -0.394296    0.128193
     10          7           0        4.163519   -0.806118    0.742116
     11          1           0        0.481709   -0.155053    1.130017
     12          1           0        0.720476   -1.631948    0.178607
     13          6           0       -1.096452    2.080537    0.206014
     14          8           0       -0.896190    1.846592    1.397279
     15          7           0       -3.082858   -1.206238   -0.606274
     16          1           0       -1.326341    3.095695   -0.157992
     17          1           0       -3.187810   -0.867544   -1.554205
     18          1           0       -3.843713   -1.654189   -0.113901
 ---------------------------------------------------------------------

 SCF Done:  E(RHF) =  -904.147768410     a.u. after   12 cycles
 E2 =    -0.1757975392D+01 EUMP2 =    -0.90590574380201D+03

 The electronic state is 1-A.
 Alpha  occ. eigenvalues --  -92.02005 -20.55167 -20.54869 -15.63361 -15.61659
 Alpha  occ. eigenvalues --  -15.59332 -11.38967 -11.38422 -11.34420 -11.30924
 Alpha  occ. eigenvalues --  -11.29948  -9.02159  -6.70429  -6.70244  -6.70092
 Alpha  occ. eigenvalues --   -1.40817  -1.39873  -1.27480  -1.23810  -1.21978
 Alpha  occ. eigenvalues --   -1.11402  -1.03463  -0.91412  -0.86566  -0.79795
 Alpha  occ. eigenvalues --   -0.78384  -0.75879  -0.71128  -0.68027  -0.67547
 Alpha  occ. eigenvalues --   -0.64001  -0.63253  -0.61257  -0.58596  -0.57705
 Alpha  occ. eigenvalues --   -0.56477  -0.55729  -0.52713  -0.51137  -0.46958
 Alpha  occ. eigenvalues --   -0.45461  -0.45029  -0.43865  -0.42122  -0.38233
 Alpha virt. eigenvalues --    0.01155   0.03460   0.04222   0.05481   0.06644
 Alpha virt. eigenvalues --    0.07600   0.07793   0.09643   0.09885   0.11095
 Alpha virt. eigenvalues --    0.11356   0.12134   0.12317   0.12637   0.13438

 Mulliken atomic charges:
              1
     1  N   -0.304261
     2  H    0.376918
     3  C    0.240053
     4  H    0.215687
     5  C    0.052898
     6  O   -0.366209
     7  C   -0.502881
     8  S    0.295499
     9  C   -0.399820
    10  N   -0.163478
    11  H    0.281789
    12  H    0.257232
    13  C    0.130943
    14  O   -0.384113
    15  N   -0.499095
    16  H    0.128450
    17  H    0.282648
    18  H    0.357741
 Sum of Mulliken atomic charges =   0.00000

 Dipole moment (field-independent basis, Debye):
    X=             -6.1894    Y=              1.1973    Z=             -8.2143  Tot=             10.3546
 Quadrupole moment (field-independent basis, Debye-Ang):
   XX=            -82.1348   YY=            -70.1191   ZZ=            -76.1941
   XY=              4.4010   XZ=              7.3322   YZ=             -2.2875

 Normal termination of Gaussian 09 at Mon Dec 30 09:58:29 2019.
