 Gaussian 09, Revision A.02,
 Gaussian 09:  EM64L-G09RevA.02 11-Jun-2009

 ---------------------------------------------
 #P opt=(,maxcycle=400) HF/6-31G* MaxDisk=50GB
 ---------------------------------------------

 ------------------------------------------------------------------
 ModifiedRes Rotatable Bond Optimization on bme-nova.bme.utexas.edu
 ------------------------------------------------------------------
 Symbolic Z-matrix:
 Charge =  0 Multiplicity = 1

 SCF Done:  E(RHF) =  -903.992617706     A.U. after   16 cycles
 SCF Done:  E(RHF) =  -904.006780472     A.U. after   14 cycles
 SCF Done:  E(RHF) =  -904.007816649     A.U. after   14 cycles
 SCF Done:  E(RHF) =  -904.007505311     A.U. after   14 cycles
 SCF Done:  E(RHF) =  -904.008094094     A.U. after   13 cycles
 SCF Done:  E(RHF) =  -904.008241053     A.U. after   13 cycles
 SCF Done:  E(RHF) =  -904.008212342     A.U. after   14 cycles
 SCF Done:  E(RHF) =  -904.008306412     A.U. after   13 cycles
 SCF Done:  E(RHF) =  -904.008324414     A.U. after   12 cycles
 SCF Done:  E(RHF) =  -904.008327312     A.U. after   12 cycles
 SCF Done:  E(RHF) =  -904.008330810     A.U. after   11 cycles
 SCF Done:  E(RHF) =  -904.008331484     A.U. after   11 cycles
 SCF Done:  E(RHF) =  -904.008331726     A.U. after   11 cycles
 SCF Done:  E(RHF) =  -904.008331756     A.U. after    9 cycles
 Optimization completed.
    -- Stationary point found.

                         Standard orientation:
 ---------------------------------------------------------------------
 Center     Atomic      Atomic             Coordinates (Angstroms)
 Number     Number       Type             X           Y           Z
 ---------------------------------------------------------------------
      1          7           0        1.568578   -1.040296    0.748769
      2          1           0        1.393630   -1.178666    1.720007
      3          6           0        0.637882   -0.224728   -0.013580
      4          1           0        0.801325   -0.467167   -1.054288
      5          6           0        0.951521    1.258611    0.237155
      6          8           0        0.399730    1.872699    1.105312
      7          6           0       -0.789603   -0.577643    0.397421
      8         16           0       -1.962598    0.085231   -0.843870
      9          6           0       -3.421434   -0.307399   -0.055483
     10          7           0       -4.405162   -0.569263    0.451389
     11          1           0       -0.902337   -1.650869    0.433692
     12          1           0       -1.021524   -0.140469    1.356263
     13          6           0        2.783391   -1.371766    0.260898
     14          8           0        3.179830   -1.075457   -0.829325
     15          7           0        1.898345    1.771464   -0.571144
     16          1           0        3.379795   -1.955827    0.958855
     17          1           0        2.472981    1.171923   -1.122570
     18          1           0        2.238359    2.683676   -0.359499
 ---------------------------------------------------------------------

 The electronic state is 1-A.
 Alpha  occ. eigenvalues --  -92.00786 -20.56847 -20.54840 -15.63176 -15.59795
 Alpha  occ. eigenvalues --  -15.58676 -11.38403 -11.37142 -11.32049 -11.30204
 Alpha  occ. eigenvalues --  -11.29888  -9.01705  -6.70016  -6.69830  -6.69614
 Alpha  occ. eigenvalues --   -1.43285  -1.41570  -1.28390  -1.24081  -1.23248
 Alpha  occ. eigenvalues --   -1.12219  -1.02846  -0.91521  -0.86654  -0.81700
 Alpha  occ. eigenvalues --   -0.77246  -0.74923  -0.71639  -0.70377  -0.66428
 Alpha  occ. eigenvalues --   -0.64569  -0.63468  -0.61629  -0.58283  -0.57872
 Alpha  occ. eigenvalues --   -0.57361  -0.56134  -0.53136  -0.52060  -0.47202
 Alpha  occ. eigenvalues --   -0.46986  -0.45370  -0.43131  -0.41485  -0.38459
 Alpha virt. eigenvalues --    0.12539   0.15949   0.17428   0.19938   0.20492
 Alpha virt. eigenvalues --    0.21867   0.22728   0.24193   0.24493   0.27099
 Alpha virt. eigenvalues --    0.27837   0.30462   0.31858   0.34868   0.38525

 Mulliken atomic charges:
              1
     1  N   -0.764388
     2  H    0.403319
     3  C   -0.086499
     4  H    0.249916
     5  C    0.763958
     6  O   -0.595207
     7  C   -0.503513
     8  S    0.298339
     9  C    0.087279
    10  N   -0.378804
    11  H    0.235926
    12  H    0.261113
    13  C    0.518653
    14  O   -0.576003
    15  N   -0.921424
    16  H    0.179963
    17  H    0.428932
    18  H    0.398439
 Sum of Mulliken atomic charges =   0.00000

 Dipole moment (field-independent basis, Debye):
    X=              5.0518    Y=             -1.6094    Z=              0.7695  Tot=              5.3575
 Quadrupole moment (field-independent basis, Debye-Ang):
   XX=            -91.1687   YY=            -70.3603   ZZ=            -70.8232
   XY=              0.8467   XZ=             10.3159   YZ=             -9.3229

 Normal termination of Gaussian 09 at Tue Dec 31 08:58:06 2019.
