 Gaussian 09, Revision A.02,
 Gaussian 09:  EM64L-G09RevA.02 11-Jun-2009

 ------------------------------------------------------------------
 #P MP2/6-311++G** SP SCF=(qc,maxcycle=800) Guess=Indo MaxDisk=50GB
 ------------------------------------------------------------------

 --------------------------------------------------------------------
 ModifiedRes Rotatable Bond SP Calculation on bme-nova.bme.utexas.edu
 --------------------------------------------------------------------
 Symbolic Z-matrix:
 Charge =  0 Multiplicity = 1

                         Standard orientation:
 ---------------------------------------------------------------------
 Center     Atomic      Atomic             Coordinates (Angstroms)
 Number     Number       Type             X           Y           Z
 ---------------------------------------------------------------------
      1          7           0        0.944147   -0.942211    0.640077
      2          1           0        0.484305   -0.978111    1.545677
      3          6           0        0.636967    0.166470   -0.289063
      4          1           0        0.846279   -0.204466   -1.301656
      5          6           0        1.559216    1.373334    0.018912
      6          8           0        1.122610    2.365825    0.606479
      7          6           0       -0.848947    0.597645   -0.198461
      8         16           0       -1.994786   -0.820687    0.073610
      9          6           0       -3.477610   -0.009633   -0.108147
     10          7           0       -4.525467    0.530477   -0.229952
     11          1           0       -0.981215    1.313060    0.616709
     12          1           0       -1.129393    1.075471   -1.140412
     13          6           0        1.940471   -1.843840    0.394579
     14          8           0        2.662518   -1.795625   -0.607728
     15          7           0        2.847608    1.250002   -0.398635
     16          1           0        2.045637   -2.622708    1.166229
     17          1           0        3.175562    0.389712   -0.828902
     18          1           0        3.469781    2.024711   -0.212774
 ---------------------------------------------------------------------

 SCF Done:  E(RHF) =  -904.159018885     a.u. after   12 cycles
 E2 =    -0.1755889513D+01 EUMP2 =    -0.90591490839832D+03

 The electronic state is 1-A.
 Alpha  occ. eigenvalues --  -92.02980 -20.56657 -20.54930 -15.64007 -15.60634
 Alpha  occ. eigenvalues --  -15.60197 -11.39864 -11.38822 -11.33981 -11.31680
 Alpha  occ. eigenvalues --  -11.31255  -9.03120  -6.71378  -6.71196  -6.71041
 Alpha  occ. eigenvalues --   -1.41779  -1.40359  -1.27971  -1.23156  -1.22841
 Alpha  occ. eigenvalues --   -1.12049  -1.03889  -0.91655  -0.87261  -0.81574
 Alpha  occ. eigenvalues --   -0.76902  -0.75755  -0.71468  -0.70380  -0.67768
 Alpha  occ. eigenvalues --   -0.64255  -0.62922  -0.62455  -0.58875  -0.58018
 Alpha  occ. eigenvalues --   -0.56943  -0.56702  -0.53469  -0.51801  -0.47904
 Alpha  occ. eigenvalues --   -0.47071  -0.45953  -0.43374  -0.42695  -0.39215
 Alpha virt. eigenvalues --    0.02811   0.04029   0.05092   0.05645   0.07034
 Alpha virt. eigenvalues --    0.07545   0.08527   0.08738   0.09437   0.10493
 Alpha virt. eigenvalues --    0.11151   0.11414   0.12351   0.12832   0.13100

 Mulliken atomic charges:
              1
     1  N   -0.166367
     2  H    0.339481
     3  C   -0.287010
     4  H    0.289467
     5  C    0.231835
     6  O   -0.416395
     7  C   -0.494730
     8  S    0.250168
     9  C   -0.195625
    10  N   -0.188464
    11  H    0.254730
    12  H    0.217039
    13  C    0.285861
    14  O   -0.459162
    15  N   -0.504840
    16  H    0.161663
    17  H    0.319960
    18  H    0.362385
 Sum of Mulliken atomic charges =   0.00000

 Dipole moment (field-independent basis, Debye):
    X=              4.1501    Y=             -2.2918    Z=              1.1495  Tot=              4.8782
 Quadrupole moment (field-independent basis, Debye-Ang):
   XX=            -93.4739   YY=            -79.6509   ZZ=            -69.6884
   XY=              7.8593   XZ=              1.5109   YZ=            -10.0548

 Normal termination of Gaussian 09 at Tue Dec 31 09:06:38 2019.
