 Gaussian 09, Revision A.02,
 Gaussian 09:  EM64L-G09RevA.02 11-Jun-2009

 ------------------------------------------------------------------
 #P MP2/6-311++G** SP SCF=(qc,maxcycle=800) Guess=Indo MaxDisk=50GB
 ------------------------------------------------------------------

 --------------------------------------------------------------------
 ModifiedRes Rotatable Bond SP Calculation on bme-nova.bme.utexas.edu
 --------------------------------------------------------------------
 Symbolic Z-matrix:
 Charge =  0 Multiplicity = 1

                         Standard orientation:
 ---------------------------------------------------------------------
 Center     Atomic      Atomic             Coordinates (Angstroms)
 Number     Number       Type             X           Y           Z
 ---------------------------------------------------------------------
      1          7           0        1.141579   -0.914853    0.535949
      2          1           0        1.135181   -0.909097    1.551765
      3          6           0        0.609669    0.244617   -0.196889
      4          1           0        0.605631   -0.006920   -1.268624
      5          6           0        1.497751    1.511557   -0.081958
      6          8           0        1.044391    2.601472   -0.434780
      7          6           0       -0.833221    0.592723    0.220023
      8         16           0       -1.942251   -0.858047   -0.024565
      9          6           0       -3.444658   -0.063204   -0.032048
     10          7           0       -4.485132    0.503186   -0.002797
     11          1           0       -0.871239    0.885643    1.271669
     12          1           0       -1.193445    1.422640   -0.393737
     13          6           0        1.650746   -2.009433   -0.088256
     14          8           0        2.842049   -2.062059   -0.397355
     15          7           0        2.767437    1.348895    0.381567
     16          1           0        0.928230   -2.809620   -0.309480
     17          1           0        3.194980    0.429494    0.435957
     18          1           0        3.336251    2.183139    0.434316
 ---------------------------------------------------------------------

 SCF Done:  E(RHF) =  -904.121370653     a.u. after   11 cycles
 E2 =    -0.1754031503D+01 EUMP2 =    -0.90587540215533D+03

 The electronic state is 1-A.
 Alpha  occ. eigenvalues --  -92.03018 -20.59891 -20.54695 -15.60850 -15.60190
 Alpha  occ. eigenvalues --  -15.60059 -11.40034 -11.38774 -11.34423 -11.31723
 Alpha  occ. eigenvalues --  -11.31392  -9.03161  -6.71422  -6.71240  -6.71089
 Alpha  occ. eigenvalues --   -1.43283  -1.40424  -1.27540  -1.22952  -1.22791
 Alpha  occ. eigenvalues --   -1.12128  -1.03599  -0.91481  -0.87301  -0.82211
 Alpha  occ. eigenvalues --   -0.76629  -0.75546  -0.72002  -0.69808  -0.68862
 Alpha  occ. eigenvalues --   -0.66761  -0.62710  -0.61546  -0.61087  -0.57008
 Alpha  occ. eigenvalues --   -0.55650  -0.54407  -0.53273  -0.52046  -0.49624
 Alpha  occ. eigenvalues --   -0.47549  -0.46100  -0.43536  -0.41806  -0.39290
 Alpha virt. eigenvalues --    0.02943   0.04201   0.04560   0.05380   0.06395
 Alpha virt. eigenvalues --    0.07395   0.07896   0.08667   0.08975   0.10286
 Alpha virt. eigenvalues --    0.11093   0.11288   0.12319   0.13204   0.13646

 Mulliken atomic charges:
              1
     1  N   -0.203586
     2  H    0.329135
     3  C   -0.479155
     4  H    0.252395
     5  C    0.307463
     6  O   -0.401159
     7  C   -0.258552
     8  S    0.058450
     9  C   -0.003220
    10  N   -0.216690
    11  H    0.236467
    12  H    0.227738
    13  C    0.150016
    14  O   -0.289511
    15  N   -0.557596
    16  H    0.177771
    17  H    0.302778
    18  H    0.367258
 Sum of Mulliken atomic charges =   0.00000

 Dipole moment (field-independent basis, Debye):
    X=              3.7963    Y=             -2.6319    Z=              2.2173  Tot=              5.1240
 Quadrupole moment (field-independent basis, Debye-Ang):
   XX=            -96.2612   YY=            -81.4875   ZZ=            -69.4256
   XY=             10.0515   XZ=              4.9550   YZ=              1.0122

 Normal termination of Gaussian 09 at Mon Dec 30 09:47:56 2019.
