 Gaussian 09, Revision A.02,
 Gaussian 09:  EM64L-G09RevA.02 11-Jun-2009

 ---------------------------------------------
 #P opt=(,maxcycle=400) HF/6-31G* MaxDisk=50GB
 ---------------------------------------------

 ------------------------------------------------------------------
 ModifiedRes Rotatable Bond Optimization on bme-nova.bme.utexas.edu
 ------------------------------------------------------------------
 Symbolic Z-matrix:
 Charge =  0 Multiplicity = 1

 SCF Done:  E(RHF) =  -903.980132467     A.U. after   16 cycles
 SCF Done:  E(RHF) =  -903.996420392     A.U. after   14 cycles
 SCF Done:  E(RHF) =  -903.999655600     A.U. after   13 cycles
 SCF Done:  E(RHF) =  -904.004236219     A.U. after   17 cycles
 SCF Done:  E(RHF) =  -904.004804395     A.U. after   14 cycles
 SCF Done:  E(RHF) =  -904.005769393     A.U. after   13 cycles
 SCF Done:  E(RHF) =  -904.005609454     A.U. after   12 cycles
 SCF Done:  E(RHF) =  -904.005880834     A.U. after   13 cycles
 SCF Done:  E(RHF) =  -904.005959582     A.U. after   12 cycles
 SCF Done:  E(RHF) =  -904.005967549     A.U. after   11 cycles
 SCF Done:  E(RHF) =  -904.005972558     A.U. after   11 cycles
 SCF Done:  E(RHF) =  -904.005973290     A.U. after   11 cycles
 SCF Done:  E(RHF) =  -904.005973628     A.U. after   10 cycles
 SCF Done:  E(RHF) =  -904.005973640     A.U. after    9 cycles
 Optimization completed.
    -- Stationary point found.

                         Standard orientation:
 ---------------------------------------------------------------------
 Center     Atomic      Atomic             Coordinates (Angstroms)
 Number     Number       Type             X           Y           Z
 ---------------------------------------------------------------------
      1          7           0       -1.057573    1.146489   -0.747772
      2          1           0       -0.883663    1.602059   -1.615787
      3          6           0       -0.683050   -0.252734   -0.627958
      4          1           0       -0.518910   -0.603224   -1.640914
      5          6           0       -1.798897   -1.152369   -0.074716
      6          8           0       -1.522517   -2.177095    0.475938
      7          6           0        0.596756   -0.484660    0.179860
      8         16           0        1.949659    0.502707   -0.574043
      9          6           0        3.293920   -0.255475    0.148906
     10          7           0        4.211189   -0.741554    0.613032
     11          1           0        0.467902   -0.185143    1.206525
     12          1           0        0.861274   -1.527260    0.139206
     13          6           0       -1.322588    1.931678    0.329169
     14          8           0       -1.448542    1.522124    1.441308
     15          7           0       -3.063951   -0.781854   -0.367111
     16          1           0       -1.437349    2.983822    0.072064
     17          1           0       -3.273679    0.160041   -0.599326
     18          1           0       -3.786146   -1.314036    0.066333
 ---------------------------------------------------------------------

 The electronic state is 1-A.
 Alpha  occ. eigenvalues --  -92.00583 -20.57036 -20.54732 -15.63341 -15.59945
 Alpha  occ. eigenvalues --  -15.58470 -11.38371 -11.37458 -11.32540 -11.29705
 Alpha  occ. eigenvalues --  -11.29253  -9.01515  -6.69836  -6.69640  -6.69443
 Alpha  occ. eigenvalues --   -1.43567  -1.41699  -1.28660  -1.23868  -1.23115
 Alpha  occ. eigenvalues --   -1.11556  -1.03115  -0.91465  -0.86634  -0.79703
 Alpha  occ. eigenvalues --   -0.79476  -0.75546  -0.70799  -0.68039  -0.67474
 Alpha  occ. eigenvalues --   -0.65183  -0.62540  -0.61386  -0.60458  -0.58262
 Alpha  occ. eigenvalues --   -0.55974  -0.55492  -0.53003  -0.51988  -0.46697
 Alpha  occ. eigenvalues --   -0.46166  -0.45696  -0.43377  -0.42069  -0.38370
 Alpha virt. eigenvalues --    0.12850   0.16460   0.17140   0.18715   0.21440
 Alpha virt. eigenvalues --    0.21688   0.22300   0.23768   0.25182   0.26951
 Alpha virt. eigenvalues --    0.27769   0.28774   0.31103   0.35420   0.38404

 Mulliken atomic charges:
              1
     1  N   -0.803581
     2  H    0.402427
     3  C   -0.073022
     4  H    0.241152
     5  C    0.782930
     6  O   -0.589953
     7  C   -0.494784
     8  S    0.255207
     9  C    0.090556
    10  N   -0.377396
    11  H    0.269566
    12  H    0.265135
    13  C    0.503387
    14  O   -0.541239
    15  N   -0.906999
    16  H    0.176080
    17  H    0.399220
    18  H    0.401315
 Sum of Mulliken atomic charges =   0.00000

 Dipole moment (field-independent basis, Debye):
    X=             -5.1673    Y=              4.0384    Z=             -5.0007  Tot=              8.2472
 Quadrupole moment (field-independent basis, Debye-Ang):
   XX=            -81.4394   YY=            -73.2475   ZZ=            -73.6963
   XY=             -0.1916   XZ=              1.7235   YZ=             -3.1771

 Normal termination of Gaussian 09 at Mon Dec 30 09:50:47 2019.
