 Gaussian 09, Revision A.02,
 Gaussian 09:  EM64L-G09RevA.02 11-Jun-2009

 ------------------------------------------------------------------
 #P MP2/6-311++G** SP SCF=(qc,maxcycle=800) Guess=Indo MaxDisk=50GB
 ------------------------------------------------------------------

 --------------------------------------------------------------------
 ModifiedRes Rotatable Bond SP Calculation on bme-nova.bme.utexas.edu
 --------------------------------------------------------------------
 Symbolic Z-matrix:
 Charge =  0 Multiplicity = 1

                         Standard orientation:
 ---------------------------------------------------------------------
 Center     Atomic      Atomic             Coordinates (Angstroms)
 Number     Number       Type             X           Y           Z
 ---------------------------------------------------------------------
      1          7           0        0.944084   -1.155147    0.333063
      2          1           0        0.258886   -1.611762    0.930026
      3          6           0        0.522019    0.090899   -0.358636
      4          1           0        0.558923   -0.125100   -1.433409
      5          6           0        1.478416    1.283214   -0.040658
      6          8           0        1.111666    2.160593    0.746004
      7          6           0       -0.910523    0.503746    0.057367
      8         16           0       -2.111497   -0.833613   -0.338855
      9          6           0       -3.563046   -0.022114    0.010939
     10          7           0       -4.567307    0.566981    0.230951
     11          1           0       -0.952381    0.722334    1.126859
     12          1           0       -1.203416    1.401470   -0.492258
     13          6           0        2.189111   -1.715804    0.440277
     14          8           0        3.235465   -1.277221   -0.046358
     15          7           0        2.690601    1.319279   -0.648450
     16          1           0        2.175879   -2.651198    1.024635
     17          1           0        3.125802    0.466180   -0.976263
     18          1           0        3.275704    2.111466   -0.419764
 ---------------------------------------------------------------------

 SCF Done:  E(RHF) =  -904.149182722     a.u. after   11 cycles
 E2 =    -0.1756982063D+01 EUMP2 =    -0.90590616478408D+03

 The electronic state is 1-A.
 Alpha  occ. eigenvalues --  -92.03480 -20.56630 -20.54459 -15.64097 -15.60672
 Alpha  occ. eigenvalues --  -15.59169 -11.40012 -11.38548 -11.34694 -11.32145
 Alpha  occ. eigenvalues --  -11.32025  -9.03646  -6.71911  -6.71728  -6.71575
 Alpha  occ. eigenvalues --   -1.41705  -1.39995  -1.28012  -1.23318  -1.22302
 Alpha  occ. eigenvalues --   -1.12784  -1.04181  -0.91859  -0.87539  -0.79664
 Alpha  occ. eigenvalues --   -0.77457  -0.75094  -0.71958  -0.69997  -0.68218
 Alpha  occ. eigenvalues --   -0.64176  -0.62503  -0.61837  -0.60420  -0.57752
 Alpha  occ. eigenvalues --   -0.57222  -0.56389  -0.54075  -0.52418  -0.47724
 Alpha  occ. eigenvalues --   -0.47027  -0.46227  -0.43210  -0.41796  -0.39795
 Alpha virt. eigenvalues --    0.02742   0.04164   0.05385   0.05593   0.06778
 Alpha virt. eigenvalues --    0.07408   0.08512   0.08889   0.09460   0.10303
 Alpha virt. eigenvalues --    0.10621   0.11855   0.12098   0.12321   0.13218

 Mulliken atomic charges:
              1
     1  N   -0.180006
     2  H    0.284017
     3  C    0.064555
     4  H    0.248502
     5  C    0.018822
     6  O   -0.389838
     7  C   -0.725677
     8  S    0.254905
     9  C   -0.231535
    10  N   -0.172067
    11  H    0.293770
    12  H    0.250305
    13  C    0.344890
    14  O   -0.473601
    15  N   -0.405417
    16  H    0.167691
    17  H    0.312878
    18  H    0.337806
 Sum of Mulliken atomic charges =   0.00000

 Dipole moment (field-independent basis, Debye):
    X=              2.6253    Y=             -3.4375    Z=             -0.8830  Tot=              4.4146
 Quadrupole moment (field-independent basis, Debye-Ang):
   XX=            -99.6957   YY=            -73.6447   ZZ=            -71.5144
   XY=              6.3701   XZ=              0.4683   YZ=             -8.0176

 Normal termination of Gaussian 09 at Mon Dec 30 09:56:07 2019.
