 Gaussian 09, Revision A.02,
 Gaussian 09:  EM64L-G09RevA.02 11-Jun-2009

 ---------------------------------------------
 #P opt=(,maxcycle=400) HF/6-31G* MaxDisk=50GB
 ---------------------------------------------

 ------------------------------------------------------------------
 ModifiedRes Rotatable Bond Optimization on bme-nova.bme.utexas.edu
 ------------------------------------------------------------------
 Symbolic Z-matrix:
 Charge =  0 Multiplicity = 1

 SCF Done:  E(RHF) =  -903.990991423     A.U. after   16 cycles
 SCF Done:  E(RHF) =  -904.007384151     A.U. after   15 cycles
 SCF Done:  E(RHF) =  -904.008413278     A.U. after   14 cycles
 SCF Done:  E(RHF) =  -904.010576925     A.U. after   16 cycles
 SCF Done:  E(RHF) =  -904.011139662     A.U. after   13 cycles
 SCF Done:  E(RHF) =  -904.011430078     A.U. after   13 cycles
 SCF Done:  E(RHF) =  -904.011335889     A.U. after   12 cycles
 SCF Done:  E(RHF) =  -904.011465195     A.U. after   12 cycles
 SCF Done:  E(RHF) =  -904.011471254     A.U. after   11 cycles
 SCF Done:  E(RHF) =  -904.011476276     A.U. after   12 cycles
 SCF Done:  E(RHF) =  -904.011479426     A.U. after   11 cycles
 SCF Done:  E(RHF) =  -904.011481101     A.U. after   10 cycles
 SCF Done:  E(RHF) =  -904.011481439     A.U. after   10 cycles
 SCF Done:  E(RHF) =  -904.011481488     A.U. after    9 cycles
 Optimization completed.
    -- Stationary point found.

                         Standard orientation:
 ---------------------------------------------------------------------
 Center     Atomic      Atomic             Coordinates (Angstroms)
 Number     Number       Type             X           Y           Z
 ---------------------------------------------------------------------
      1          7           0        0.972631   -0.886420    0.757694
      2          1           0        0.595311   -0.861330    1.679548
      3          6           0        0.605191    0.165487   -0.176129
      4          1           0        0.716764   -0.245176   -1.170274
      5          6           0        1.544217    1.374310   -0.029501
      6          8           0        1.190855    2.377924    0.522636
      7          6           0       -0.834690    0.613849    0.044007
      8         16           0       -1.956442   -0.821354   -0.178166
      9          6           0       -3.448566    0.001881   -0.101779
     10          7           0       -4.455917    0.527143   -0.052208
     11          1           0       -0.966900    1.027997    1.031373
     12          1           0       -1.092447    1.372323   -0.678174
     13          6           0        1.915438   -1.808707    0.474696
     14          8           0        2.539195   -1.848673   -0.547349
     15          7           0        2.763280    1.195757   -0.566446
     16          1           0        2.059183   -2.533552    1.273071
     17          1           0        3.055035    0.305576   -0.907526
     18          1           0        3.446245    1.905525   -0.420700
 ---------------------------------------------------------------------

 The electronic state is 1-A.
 Alpha  occ. eigenvalues --  -92.01092 -20.56942 -20.54871 -15.63317 -15.59690
 Alpha  occ. eigenvalues --  -15.58909 -11.38514 -11.37291 -11.32195 -11.30403
 Alpha  occ. eigenvalues --  -11.30074  -9.02000  -6.70309  -6.70119  -6.69915
 Alpha  occ. eigenvalues --   -1.43376  -1.41612  -1.28588  -1.24300  -1.23196
 Alpha  occ. eigenvalues --   -1.12246  -1.03305  -0.91358  -0.87053  -0.81770
 Alpha  occ. eigenvalues --   -0.76976  -0.75843  -0.71459  -0.69982  -0.67175
 Alpha  occ. eigenvalues --   -0.64516  -0.62832  -0.62082  -0.58996  -0.58407
 Alpha  occ. eigenvalues --   -0.57100  -0.56110  -0.53407  -0.52340  -0.47400
 Alpha  occ. eigenvalues --   -0.46509  -0.46143  -0.42867  -0.41762  -0.38699
 Alpha virt. eigenvalues --    0.12891   0.15869   0.17635   0.19442   0.20871
 Alpha virt. eigenvalues --    0.21180   0.22430   0.23472   0.24299   0.27396
 Alpha virt. eigenvalues --    0.28400   0.29670   0.32297   0.34508   0.37791

 Mulliken atomic charges:
              1
     1  N   -0.768356
     2  H    0.406910
     3  C   -0.100348
     4  H    0.253899
     5  C    0.775495
     6  O   -0.596792
     7  C   -0.492802
     8  S    0.285926
     9  C    0.084645
    10  N   -0.376501
    11  H    0.246055
    12  H    0.252442
    13  C    0.521826
    14  O   -0.579223
    15  N   -0.934316
    16  H    0.182736
    17  H    0.438998
    18  H    0.399404
 Sum of Mulliken atomic charges =   0.00000

 Dipole moment (field-independent basis, Debye):
    X=              4.1248    Y=             -2.0522    Z=              1.5064  Tot=              4.8471
 Quadrupole moment (field-independent basis, Debye-Ang):
   XX=            -89.2680   YY=            -79.2412   ZZ=            -67.5870
   XY=              6.4391   XZ=              2.5830   YZ=             -8.6404

 Normal termination of Gaussian 09 at Mon Dec 30 09:41:38 2019.
