 Gaussian 09, Revision A.02,
 Gaussian 09:  EM64L-G09RevA.02 11-Jun-2009

 ------------------------------------------------------------------
 #P MP2/6-311++G** SP SCF=(qc,maxcycle=800) Guess=Indo MaxDisk=50GB
 ------------------------------------------------------------------

 --------------------------------------------------------------------
 ModifiedRes Rotatable Bond SP Calculation on bme-nova.bme.utexas.edu
 --------------------------------------------------------------------
 Symbolic Z-matrix:
 Charge =  0 Multiplicity = 1

                         Standard orientation:
 ---------------------------------------------------------------------
 Center     Atomic      Atomic             Coordinates (Angstroms)
 Number     Number       Type             X           Y           Z
 ---------------------------------------------------------------------
      1          7           0        0.999829   -0.919731    0.761481
      2          1           0        0.633292   -0.935092    1.708832
      3          6           0        0.606322    0.146145   -0.182149
      4          1           0        0.719606   -0.265990   -1.194220
      5          6           0        1.537833    1.373350   -0.025087
      6          8           0        1.141706    2.386893    0.554972
      7          6           0       -0.856325    0.584735    0.039398
      8         16           0       -1.995307   -0.844816   -0.182613
      9          6           0       -3.478934   -0.018962   -0.103568
     10          7           0       -4.527360    0.531355   -0.052332
     11          1           0       -0.989326    1.000342    1.040690
     12          1           0       -1.118928    1.352970   -0.691718
     13          6           0        2.004099   -1.803934    0.484498
     14          8           0        2.651761   -1.784146   -0.568388
     15          7           0        2.781552    1.244978   -0.559104
     16          1           0        2.188206   -2.542622    1.280670
     17          1           0        3.081999    0.366297   -0.971760
     18          1           0        3.406207    2.034965   -0.472226
 ---------------------------------------------------------------------

 SCF Done:  E(RHF) =  -904.162301208     a.u. after   11 cycles
 E2 =    -0.1755679124D+01 EUMP2 =    -0.90591798033199D+03

 The electronic state is 1-A.
 Alpha  occ. eigenvalues --  -92.02845 -20.56659 -20.54809 -15.64019 -15.60544
 Alpha  occ. eigenvalues --  -15.60091 -11.39837 -11.38722 -11.33961 -11.31601
 Alpha  occ. eigenvalues --  -11.31473  -9.02992  -6.71249  -6.71068  -6.70913
 Alpha  occ. eigenvalues --   -1.41783  -1.40276  -1.27986  -1.23097  -1.22765
 Alpha  occ. eigenvalues --   -1.12318  -1.03793  -0.91666  -0.87176  -0.81576
 Alpha  occ. eigenvalues --   -0.76805  -0.75853  -0.71716  -0.70246  -0.67685
 Alpha  occ. eigenvalues --   -0.64311  -0.62818  -0.62126  -0.59051  -0.58286
 Alpha  occ. eigenvalues --   -0.57018  -0.56661  -0.53442  -0.51911  -0.47870
 Alpha  occ. eigenvalues --   -0.47086  -0.45839  -0.43314  -0.42703  -0.39088
 Alpha virt. eigenvalues --    0.02664   0.04105   0.05146   0.05477   0.07169
 Alpha virt. eigenvalues --    0.07504   0.08512   0.08741   0.09440   0.10653
 Alpha virt. eigenvalues --    0.10824   0.11822   0.12571   0.12832   0.13078

 Mulliken atomic charges:
              1
     1  N   -0.119588
     2  H    0.334122
     3  C   -0.346586
     4  H    0.272545
     5  C    0.238386
     6  O   -0.400348
     7  C   -0.477672
     8  S    0.125654
     9  C   -0.111926
    10  N   -0.197436
    11  H    0.262054
    12  H    0.238161
    13  C    0.291961
    14  O   -0.454213
    15  N   -0.503523
    16  H    0.160163
    17  H    0.320892
    18  H    0.367352
 Sum of Mulliken atomic charges =   0.00000

 Dipole moment (field-independent basis, Debye):
    X=              4.2369    Y=             -2.3308    Z=              1.3046  Tot=              5.0086
 Quadrupole moment (field-independent basis, Debye-Ang):
   XX=            -93.6004   YY=            -80.2685   ZZ=            -68.6484
   XY=              7.2235   XZ=              2.4587   YZ=            -10.1584

 Normal termination of Gaussian 09 at Mon Dec 30 09:54:05 2019.
