 Gaussian 09, Revision A.02,
 Gaussian 09:  EM64L-G09RevA.02 11-Jun-2009

 ------------------------------------------------------------------
 #P MP2/6-311++G** SP SCF=(qc,maxcycle=800) Guess=Indo MaxDisk=50GB
 ------------------------------------------------------------------

 --------------------------------------------------------------------
 ModifiedRes Rotatable Bond SP Calculation on bme-nova.bme.utexas.edu
 --------------------------------------------------------------------
 Symbolic Z-matrix:
 Charge =  0 Multiplicity = 1

                         Standard orientation:
 ---------------------------------------------------------------------
 Center     Atomic      Atomic             Coordinates (Angstroms)
 Number     Number       Type             X           Y           Z
 ---------------------------------------------------------------------
      1          7           0        0.882778   -0.881264    0.801042
      2          1           0        0.366349   -0.867632    1.675734
      3          6           0        0.627276    0.160855   -0.215141
      4          1           0        0.813811   -0.292853   -1.198590
      5          6           0        1.606961    1.345006   -0.027514
      6          8           0        1.202611    2.426431    0.405492
      7          6           0       -0.827521    0.672139   -0.153354
      8         16           0       -1.995119   -0.682444   -0.586359
      9          6           0       -3.417868   -0.024341    0.070522
     10          7           0       -4.424235    0.411595    0.519842
     11          1           0       -1.028969    1.099835    0.830901
     12          1           0       -0.962350    1.459958   -0.898412
     13          6           0        1.800488   -1.874417    0.611365
     14          8           0        2.536603   -1.931232   -0.380280
     15          7           0        2.899209    1.105277   -0.376735
     16          1           0        1.834308   -2.620596    1.420794
     17          1           0        3.188195    0.188718   -0.707283
     18          1           0        3.556566    1.865372   -0.267398
 ---------------------------------------------------------------------

 SCF Done:  E(RHF) =  -904.161444897     a.u. after   12 cycles
 E2 =    -0.1755766401D+01 EUMP2 =    -0.90591721129810D+03

 The electronic state is 1-A.
 Alpha  occ. eigenvalues --  -92.03026 -20.56479 -20.54761 -15.63795 -15.60468
 Alpha  occ. eigenvalues --  -15.60183 -11.39693 -11.38670 -11.33861 -11.31747
 Alpha  occ. eigenvalues --  -11.31504  -9.03174  -6.71432  -6.71250  -6.71096
 Alpha  occ. eigenvalues --   -1.41628  -1.40214  -1.27756  -1.23004  -1.22874
 Alpha  occ. eigenvalues --   -1.12384  -1.03786  -0.91744  -0.87097  -0.81496
 Alpha  occ. eigenvalues --   -0.76701  -0.75756  -0.72027  -0.69876  -0.67517
 Alpha  occ. eigenvalues --   -0.64260  -0.63261  -0.61517  -0.59091  -0.58291
 Alpha  occ. eigenvalues --   -0.56980  -0.56699  -0.53456  -0.52141  -0.47695
 Alpha  occ. eigenvalues --   -0.46952  -0.45973  -0.43237  -0.42560  -0.39245
 Alpha virt. eigenvalues --    0.02807   0.04072   0.05120   0.05515   0.07133
 Alpha virt. eigenvalues --    0.07313   0.08689   0.08692   0.09347   0.10463
 Alpha virt. eigenvalues --    0.10787   0.11918   0.12581   0.12866   0.13175

 Mulliken atomic charges:
              1
     1  N   -0.078398
     2  H    0.336262
     3  C   -0.410747
     4  H    0.274297
     5  C    0.252416
     6  O   -0.399198
     7  C   -0.509274
     8  S    0.222111
     9  C   -0.191618
    10  N   -0.185235
    11  H    0.265191
    12  H    0.243568
    13  C    0.310261
    14  O   -0.461326
    15  N   -0.523163
    16  H    0.160284
    17  H    0.320598
    18  H    0.373970
 Sum of Mulliken atomic charges =   0.00000

 Dipole moment (field-independent basis, Debye):
    X=              3.7580    Y=             -2.1685    Z=              0.5852  Tot=              4.3781
 Quadrupole moment (field-independent basis, Debye-Ang):
   XX=            -92.3362   YY=            -81.5443   ZZ=            -68.4350
   XY=              6.8291   XZ=              5.7116   YZ=             -9.3573

 Normal termination of Gaussian 09 at Tue Dec 31 09:08:29 2019.
