 Gaussian 09, Revision A.02,
 Gaussian 09:  EM64L-G09RevA.02 11-Jun-2009

 ------------------------------------------------------------------
 #P MP2/6-311++G** SP SCF=(qc,maxcycle=800) Guess=Indo MaxDisk=50GB
 ------------------------------------------------------------------

 --------------------------------------------------------------------
 ModifiedRes Rotatable Bond SP Calculation on bme-nova.bme.utexas.edu
 --------------------------------------------------------------------
 Symbolic Z-matrix:
 Charge =  0 Multiplicity = 1

                         Standard orientation:
 ---------------------------------------------------------------------
 Center     Atomic      Atomic             Coordinates (Angstroms)
 Number     Number       Type             X           Y           Z
 ---------------------------------------------------------------------
      1          7           0        1.060845   -0.835617    0.782551
      2          1           0        0.692005   -0.787597    1.728251
      3          6           0        0.658369    0.200970   -0.188107
      4          1           0        0.768108   -0.237372   -1.189906
      5          6           0        1.591304    1.430547   -0.073872
      6          8           0        1.200001    2.459335    0.479814
      7          6           0       -0.806314    0.634787    0.029970
      8         16           0       -1.941381   -0.806053   -0.144984
      9          6           0       -3.423444    0.024449   -0.077950
     10          7           0       -4.469843    0.579792   -0.034066
     11          1           0       -0.935700    1.076653    1.020482
     12          1           0       -1.078203    1.380621   -0.720700
     13          6           0        2.036945   -1.746477    0.509142
     14          8           0        2.042698   -2.429832   -0.515956
     15          7           0        2.833255    1.291057   -0.612969
     16          1           0        2.806681   -1.833649    1.291952
     17          1           0        3.108389    0.459660   -1.124280
     18          1           0        3.448271    2.090214   -0.540633
 ---------------------------------------------------------------------

 SCF Done:  E(RHF) =  -904.137104476     a.u. after   11 cycles
 E2 =    -0.1755080957D+01 EUMP2 =    -0.90589218543303D+03

 The electronic state is 1-A.
 Alpha  occ. eigenvalues --  -92.02459 -20.57480 -20.55655 -15.62237 -15.61783
 Alpha  occ. eigenvalues --  -15.59743 -11.39437 -11.39306 -11.34075 -11.31269
 Alpha  occ. eigenvalues --  -11.31236  -9.02593  -6.70845  -6.70665  -6.70508
 Alpha  occ. eigenvalues --   -1.41860  -1.41106  -1.27461  -1.24348  -1.22425
 Alpha  occ. eigenvalues --   -1.11916  -1.03471  -0.91505  -0.87223  -0.82120
 Alpha  occ. eigenvalues --   -0.77668  -0.75270  -0.71711  -0.70132  -0.67922
 Alpha  occ. eigenvalues --   -0.66590  -0.62913  -0.62143  -0.59174  -0.57472
 Alpha  occ. eigenvalues --   -0.56599  -0.55362  -0.53091  -0.51575  -0.48304
 Alpha  occ. eigenvalues --   -0.47307  -0.45539  -0.44630  -0.42004  -0.38675
 Alpha virt. eigenvalues --    0.02609   0.03709   0.04941   0.05728   0.06842
 Alpha virt. eigenvalues --    0.07623   0.07738   0.08694   0.09780   0.10171
 Alpha virt. eigenvalues --    0.11014   0.11493   0.12250   0.12851   0.13575

 Mulliken atomic charges:
              1
     1  N   -0.082912
     2  H    0.333452
     3  C   -0.362481
     4  H    0.245748
     5  C    0.242416
     6  O   -0.393618
     7  C   -0.461041
     8  S    0.100740
     9  C   -0.059043
    10  N   -0.212095
    11  H    0.254753
    12  H    0.237967
    13  C    0.169169
    14  O   -0.338445
    15  N   -0.501290
    16  H    0.159104
    17  H    0.289503
    18  H    0.378073
 Sum of Mulliken atomic charges =   0.00000

 Dipole moment (field-independent basis, Debye):
    X=              6.0302    Y=             -0.4619    Z=              0.8519  Tot=              6.1075
 Quadrupole moment (field-independent basis, Debye-Ang):
   XX=            -84.7803   YY=            -88.2175   ZZ=            -67.8060
   XY=              8.4281   XZ=              0.4024   YZ=             -9.9725

 Normal termination of Gaussian 09 at Mon Dec 30 09:47:20 2019.
