 Gaussian 09, Revision A.02,
 Gaussian 09:  EM64L-G09RevA.02 11-Jun-2009

 ------------------------------------------------------------------
 #P MP2/6-311++G** SP SCF=(qc,maxcycle=800) Guess=Indo MaxDisk=50GB
 ------------------------------------------------------------------

 --------------------------------------------------------------------
 ModifiedRes Rotatable Bond SP Calculation on bme-nova.bme.utexas.edu
 --------------------------------------------------------------------
 Symbolic Z-matrix:
 Charge =  0 Multiplicity = 1

                         Standard orientation:
 ---------------------------------------------------------------------
 Center     Atomic      Atomic             Coordinates (Angstroms)
 Number     Number       Type             X           Y           Z
 ---------------------------------------------------------------------
      1          7           0        1.446902   -0.906088    0.957853
      2          1           0        1.308773   -0.849344    1.962740
      3          6           0        0.615901   -0.071161    0.065255
      4          1           0        0.688252   -0.516768   -0.935527
      5          6           0        1.181905    1.368355    0.016659
      6          8           0        0.759916    2.233830    0.787304
      7          6           0       -0.859672   -0.077323    0.555665
      8         16           0       -1.988358   -0.458330   -0.847823
      9          6           0       -3.474204   -0.220701   -0.056576
     10          7           0       -4.501894   -0.024230    0.500961
     11          1           0       -0.981789   -0.822785    1.344075
     12          1           0       -1.120448    0.904895    0.956670
     13          6           0        2.574222   -1.528652    0.500760
     14          8           0        2.944052   -1.474574   -0.677508
     15          7           0        2.168569    1.575260   -0.895956
     16          1           0        3.123852   -2.092368    1.271110
     17          1           0        2.584197    0.790437   -1.389317
     18          1           0        2.555191    2.507466   -0.953533
 ---------------------------------------------------------------------

 SCF Done:  E(RHF) =  -904.155895635     a.u. after   11 cycles
 E2 =    -0.1756090074D+01 EUMP2 =    -0.90591198570919D+03

 The electronic state is 1-A.
 Alpha  occ. eigenvalues --  -92.02843 -20.56497 -20.54889 -15.63882 -15.60845
 Alpha  occ. eigenvalues --  -15.60025 -11.39664 -11.38709 -11.33799 -11.31518
 Alpha  occ. eigenvalues --  -11.31095  -9.02978  -6.71235  -6.71051  -6.70893
 Alpha  occ. eigenvalues --   -1.41607  -1.40298  -1.27724  -1.23340  -1.22671
 Alpha  occ. eigenvalues --   -1.12132  -1.03374  -0.91776  -0.87052  -0.81734
 Alpha  occ. eigenvalues --   -0.76996  -0.75258  -0.72110  -0.70293  -0.66934
 Alpha  occ. eigenvalues --   -0.64715  -0.63303  -0.60611  -0.58970  -0.58189
 Alpha  occ. eigenvalues --   -0.57237  -0.56422  -0.53314  -0.51662  -0.47620
 Alpha  occ. eigenvalues --   -0.47268  -0.45590  -0.43570  -0.42528  -0.39039
 Alpha virt. eigenvalues --    0.02541   0.04170   0.05095   0.05676   0.07374
 Alpha virt. eigenvalues --    0.07510   0.08431   0.08622   0.09327   0.10267
 Alpha virt. eigenvalues --    0.11086   0.11646   0.12263   0.13097   0.13257

 Mulliken atomic charges:
              1
     1  N   -0.177663
     2  H    0.337260
     3  C    0.193006
     4  H    0.339478
     5  C   -0.045923
     6  O   -0.426524
     7  C   -0.722159
     8  S    0.120515
     9  C   -0.116644
    10  N   -0.197865
    11  H    0.195871
    12  H    0.270176
    13  C    0.292217
    14  O   -0.444304
    15  N   -0.430609
    16  H    0.157598
    17  H    0.306132
    18  H    0.349439
 Sum of Mulliken atomic charges =   0.00000

 Dipole moment (field-independent basis, Debye):
    X=              4.8576    Y=             -1.8180    Z=              0.8580  Tot=              5.2571
 Quadrupole moment (field-independent basis, Debye-Ang):
   XX=            -93.7564   YY=            -77.6377   ZZ=            -68.0670
   XY=              4.3850   XZ=              8.5813   YZ=            -11.5632

 Normal termination of Gaussian 09 at Tue Dec 31 09:03:40 2019.
