 Gaussian 09, Revision A.02,
 Gaussian 09:  EM64L-G09RevA.02 11-Jun-2009

 ---------------------------------------------
 #P opt=(,maxcycle=400) HF/6-31G* MaxDisk=50GB
 ---------------------------------------------

 ------------------------------------------------------------------
 ModifiedRes Rotatable Bond Optimization on bme-nova.bme.utexas.edu
 ------------------------------------------------------------------
 Symbolic Z-matrix:
 Charge =  0 Multiplicity = 1

 SCF Done:  E(RHF) =  -903.982471012     A.U. after   16 cycles
 SCF Done:  E(RHF) =  -903.998038769     A.U. after   17 cycles
 SCF Done:  E(RHF) =  -903.998173735     A.U. after   16 cycles
 SCF Done:  E(RHF) =  -903.999303023     A.U. after   14 cycles
 SCF Done:  E(RHF) =  -904.000201201     A.U. after   13 cycles
 SCF Done:  E(RHF) =  -904.001521729     A.U. after   14 cycles
 SCF Done:  E(RHF) =  -904.002375486     A.U. after   15 cycles
 SCF Done:  E(RHF) =  -904.006283973     A.U. after   17 cycles
 SCF Done:  E(RHF) =  -904.010445906     A.U. after   16 cycles
 SCF Done:  E(RHF) =  -904.011954239     A.U. after   17 cycles
 SCF Done:  E(RHF) =  -904.013235199     A.U. after   13 cycles
 SCF Done:  E(RHF) =  -904.013423292     A.U. after   13 cycles
 SCF Done:  E(RHF) =  -904.013538072     A.U. after   13 cycles
 SCF Done:  E(RHF) =  -904.013434872     A.U. after   13 cycles
 SCF Done:  E(RHF) =  -904.013603466     A.U. after   12 cycles
 SCF Done:  E(RHF) =  -904.013626020     A.U. after   12 cycles
 SCF Done:  E(RHF) =  -904.013636288     A.U. after   11 cycles
 SCF Done:  E(RHF) =  -904.013637709     A.U. after   11 cycles
 SCF Done:  E(RHF) =  -904.013638139     A.U. after   10 cycles
 SCF Done:  E(RHF) =  -904.013638325     A.U. after    9 cycles
 Optimization completed.
    -- Stationary point found.

                         Standard orientation:
 ---------------------------------------------------------------------
 Center     Atomic      Atomic             Coordinates (Angstroms)
 Number     Number       Type             X           Y           Z
 ---------------------------------------------------------------------
      1          7           0        0.684179    1.118669   -0.289474
      2          1           0       -0.057884    1.228516   -0.945090
      3          6           0        0.655322   -0.023182    0.603209
      4          1           0        1.235297    0.248932    1.476936
      5          6           0        1.300780   -1.271091   -0.015590
      6          8           0        0.653890   -2.265429   -0.210066
      7          6           0       -0.760479   -0.332641    1.076661
      8         16           0       -1.912828   -0.776192   -0.288753
      9          6           0       -3.013297    0.527698   -0.150749
     10          7           0       -3.748458    1.393911   -0.090010
     11          1           0       -0.739021   -1.178780    1.744607
     12          1           0       -1.171106    0.518704    1.597299
     13          6           0        1.737293    1.953076   -0.365775
     14          8           0        2.751562    1.826997    0.262514
     15          7           0        2.607101   -1.158655   -0.292930
     16          1           0        1.584378    2.773923   -1.063077
     17          1           0        3.118839   -0.327815   -0.089128
     18          1           0        3.073662   -1.937592   -0.700711
 ---------------------------------------------------------------------

 The electronic state is 1-A.
 Alpha  occ. eigenvalues --  -92.00887 -20.56492 -20.55082 -15.62679 -15.59760
 Alpha  occ. eigenvalues --  -15.58732 -11.38089 -11.37288 -11.31853 -11.30459
 Alpha  occ. eigenvalues --  -11.29875  -9.01707  -6.69987  -6.69798  -6.69607
 Alpha  occ. eigenvalues --   -1.42943  -1.41664  -1.28167  -1.24221  -1.23246
 Alpha  occ. eigenvalues --   -1.11855  -1.03076  -0.91570  -0.86700  -0.81413
 Alpha  occ. eigenvalues --   -0.77455  -0.75567  -0.71205  -0.69785  -0.66923
 Alpha  occ. eigenvalues --   -0.64078  -0.63061  -0.60507  -0.59497  -0.58658
 Alpha  occ. eigenvalues --   -0.57501  -0.55686  -0.52797  -0.52567  -0.47580
 Alpha  occ. eigenvalues --   -0.46024  -0.45694  -0.42897  -0.41552  -0.38587
 Alpha virt. eigenvalues --    0.13443   0.15897   0.18659   0.19698   0.20246
 Alpha virt. eigenvalues --    0.22227   0.23090   0.23823   0.24878   0.27933
 Alpha virt. eigenvalues --    0.28428   0.30353   0.32399   0.34268   0.36975

 Mulliken atomic charges:
              1
     1  N   -0.765636
     2  H    0.419883
     3  C   -0.081439
     4  H    0.251378
     5  C    0.780347
     6  O   -0.607509
     7  C   -0.501436
     8  S    0.307906
     9  C    0.066404
    10  N   -0.391702
    11  H    0.251956
    12  H    0.248116
    13  C    0.519786
    14  O   -0.587885
    15  N   -0.938483
    16  H    0.183893
    17  H    0.442398
    18  H    0.402023
 Sum of Mulliken atomic charges =   0.00000

 Dipole moment (field-independent basis, Debye):
    X=              3.1457    Y=              0.2681    Z=             -0.0492  Tot=              3.1574
 Quadrupole moment (field-independent basis, Debye-Ang):
   XX=            -87.0141   YY=            -79.3798   ZZ=            -65.8431
   XY=              0.1808   XZ=             -4.6192   YZ=             -4.7014

 Normal termination of Gaussian 09 at Tue Dec 31 08:59:34 2019.
