 Gaussian 09, Revision A.02,
 Gaussian 09:  EM64L-G09RevA.02 11-Jun-2009

 ------------------------------------------------------------------
 #P MP2/6-311++G** SP SCF=(qc,maxcycle=800) Guess=Indo MaxDisk=50GB
 ------------------------------------------------------------------

 --------------------------------------------------------------------
 ModifiedRes Rotatable Bond SP Calculation on bme-nova.bme.utexas.edu
 --------------------------------------------------------------------
 Symbolic Z-matrix:
 Charge =  0 Multiplicity = 1

                         Standard orientation:
 ---------------------------------------------------------------------
 Center     Atomic      Atomic             Coordinates (Angstroms)
 Number     Number       Type             X           Y           Z
 ---------------------------------------------------------------------
      1          7           0       -1.240903    1.077847    0.666022
      2          1           0       -1.936818    0.969512    1.398605
      3          6           0       -0.956748   -0.061376   -0.236240
      4          1           0       -1.000025    0.332157   -1.260293
      5          6           0       -2.033355   -1.162845   -0.058125
      6          8           0       -1.784050   -2.199581    0.557843
      7          6           0        0.439396   -0.688128    0.025387
      8         16           0        1.877345    0.447102   -0.174703
      9          6           0        3.113805   -0.711456   -0.014955
     10          7           0        3.961894   -1.537148    0.066222
     11          1           0        0.468667   -1.080404    1.045182
     12          1           0        0.581637   -1.501910   -0.690919
     13          6           0       -0.775710    2.349196    0.480595
     14          8           0       -0.060488    2.683587   -0.464226
     15          7           0       -3.243705   -0.897760   -0.620300
     16          1           0       -1.096750    3.060516    1.258456
     17          1           0       -3.410033   -0.046720   -1.143945
     18          1           0       -3.953225   -1.611737   -0.524350
 ---------------------------------------------------------------------

 SCF Done:  E(RHF) =  -904.149687570     a.u. after   11 cycles
 E2 =    -0.1757744676D+01 EUMP2 =    -0.90590743224666D+03

 The electronic state is 1-A.
 Alpha  occ. eigenvalues --  -92.00982 -20.56397 -20.55838 -15.63522 -15.62917
 Alpha  occ. eigenvalues --  -15.58594 -11.40430 -11.39022 -11.34257 -11.30109
 Alpha  occ. eigenvalues --  -11.30084  -9.01107  -6.69342  -6.69162  -6.68996
 Alpha  occ. eigenvalues --   -1.42057  -1.40924  -1.27657  -1.24982  -1.21277
 Alpha  occ. eigenvalues --   -1.10967  -1.03313  -0.91389  -0.86099  -0.82402
 Alpha  occ. eigenvalues --   -0.79044  -0.74788  -0.70744  -0.70194  -0.67881
 Alpha  occ. eigenvalues --   -0.64491  -0.62692  -0.62073  -0.60177  -0.58343
 Alpha  occ. eigenvalues --   -0.56015  -0.55473  -0.51862  -0.50332  -0.47255
 Alpha  occ. eigenvalues --   -0.46275  -0.45390  -0.44057  -0.43093  -0.37398
 Alpha virt. eigenvalues --    0.01758   0.03382   0.04933   0.05794   0.06487
 Alpha virt. eigenvalues --    0.07655   0.08632   0.08940   0.09736   0.11222
 Alpha virt. eigenvalues --    0.11769   0.12426   0.12510   0.13163   0.13486

 Mulliken atomic charges:
              1
     1  N   -0.203400
     2  H    0.362831
     3  C    0.090604
     4  H    0.228362
     5  C    0.013161
     6  O   -0.365654
     7  C   -0.557337
     8  S    0.062604
     9  C   -0.039023
    10  N   -0.226994
    11  H    0.250300
    12  H    0.224541
    13  C    0.224575
    14  O   -0.397260
    15  N   -0.482042
    16  H    0.145895
    17  H    0.304098
    18  H    0.364740
 Sum of Mulliken atomic charges =   0.00000

 Dipole moment (field-independent basis, Debye):
    X=             -8.8500    Y=              2.4649    Z=              0.2378  Tot=              9.1899
 Quadrupole moment (field-independent basis, Debye-Ang):
   XX=            -74.7427   YY=            -87.1984   ZZ=            -69.3465
   XY=              1.8818   XZ=              2.8584   YZ=             10.5237

 Normal termination of Gaussian 09 at Mon Dec 30 09:58:43 2019.
