 Gaussian 09, Revision A.02,
 Gaussian 09:  EM64L-G09RevA.02 11-Jun-2009

 ------------------------------------------------------------------
 #P MP2/6-311++G** SP SCF=(qc,maxcycle=800) Guess=Indo MaxDisk=50GB
 ------------------------------------------------------------------

 --------------------------------------------------------------------
 ModifiedRes Rotatable Bond SP Calculation on bme-nova.bme.utexas.edu
 --------------------------------------------------------------------
 Symbolic Z-matrix:
 Charge =  0 Multiplicity = 1

                         Standard orientation:
 ---------------------------------------------------------------------
 Center     Atomic      Atomic             Coordinates (Angstroms)
 Number     Number       Type             X           Y           Z
 ---------------------------------------------------------------------
      1          7           0       -0.203440    0.820364    0.609674
      2          1           0        0.287940    0.684300    1.488317
      3          6           0       -0.540445   -0.335104   -0.243469
      4          1           0       -0.522626    0.011547   -1.285435
      5          6           0       -1.968458   -0.821202    0.108525
      6          8           0       -2.130592   -1.829097    0.801384
      7          6           0        0.455548   -1.513030   -0.077186
      8         16           0        2.232506   -1.160043   -0.471557
      9          6           0        2.590366    0.387957    0.138700
     10          7           0        2.873729    1.463830    0.552766
     11          1           0        0.441817   -1.843830    0.964890
     12          1           0        0.087392   -2.314980   -0.721846
     13          6           0       -0.549049    2.098694    0.272678
     14          8           0       -1.220491    2.371387   -0.729825
     15          7           0       -2.987879   -0.072260   -0.389924
     16          1           0       -0.182702    2.865994    0.972175
     17          1           0       -2.798063    0.800209   -0.875325
     18          1           0       -3.929825   -0.368291   -0.173434
 ---------------------------------------------------------------------

 SCF Done:  E(RHF) =  -904.153714086     a.u. after   12 cycles
 E2 =    -0.1759793956D+01 EUMP2 =    -0.90591350804198D+03

 The electronic state is 1-A.
 Alpha  occ. eigenvalues --  -92.03240 -20.55455 -20.54463 -15.62583 -15.60718
 Alpha  occ. eigenvalues --  -15.60122 -11.38581 -11.38294 -11.33368 -11.32708
 Alpha  occ. eigenvalues --  -11.32181  -9.03355  -6.71619  -6.71425  -6.71282
 Alpha  occ. eigenvalues --   -1.40707  -1.39772  -1.26943  -1.23445  -1.22623
 Alpha  occ. eigenvalues --   -1.11915  -1.03472  -0.92333  -0.86217  -0.80808
 Alpha  occ. eigenvalues --   -0.76380  -0.75071  -0.70820  -0.69569  -0.67869
 Alpha  occ. eigenvalues --   -0.63702  -0.63227  -0.61092  -0.58756  -0.58124
 Alpha  occ. eigenvalues --   -0.57017  -0.56208  -0.53863  -0.52657  -0.47118
 Alpha  occ. eigenvalues --   -0.46728  -0.45753  -0.42955  -0.41449  -0.39319
 Alpha virt. eigenvalues --    0.03627   0.04500   0.04856   0.06005   0.06928
 Alpha virt. eigenvalues --    0.07354   0.08330   0.09332   0.09562   0.10369
 Alpha virt. eigenvalues --    0.11126   0.11468   0.12431   0.12954   0.13186

 Mulliken atomic charges:
              1
     1  N   -0.131771
     2  H    0.370204
     3  C   -0.386288
     4  H    0.266978
     5  C    0.277433
     6  O   -0.413770
     7  C   -0.500687
     8  S    0.128388
     9  C   -0.028851
    10  N   -0.230406
    11  H    0.255379
    12  H    0.237240
    13  C    0.253166
    14  O   -0.459225
    15  N   -0.494436
    16  H    0.174914
    17  H    0.323505
    18  H    0.358226
 Sum of Mulliken atomic charges =   0.00000

 Dipole moment (field-independent basis, Debye):
    X=             -1.1195    Y=             -1.5344    Z=              0.0654  Tot=              1.9005
 Quadrupole moment (field-independent basis, Debye-Ang):
   XX=            -77.8616   YY=            -82.2267   ZZ=            -72.0725
   XY=             -9.0001   XZ=              1.5376   YZ=              9.0384

 Normal termination of Gaussian 09 at Tue Dec 31 09:11:24 2019.
