 Gaussian 09, Revision A.02,
 Gaussian 09:  EM64L-G09RevA.02 11-Jun-2009

 ---------------------------------------------
 #P opt=(,maxcycle=400) HF/6-31G* MaxDisk=50GB
 ---------------------------------------------

 ------------------------------------------------------------------
 ModifiedRes Rotatable Bond Optimization on bme-nova.bme.utexas.edu
 ------------------------------------------------------------------
 Symbolic Z-matrix:
 Charge =  0 Multiplicity = 1

 SCF Done:  E(RHF) =  -903.993829985     A.U. after   16 cycles
 SCF Done:  E(RHF) =  -904.009004938     A.U. after   15 cycles
 SCF Done:  E(RHF) =  -904.011709714     A.U. after   16 cycles
 SCF Done:  E(RHF) =  -904.011355970     A.U. after   17 cycles
 SCF Done:  E(RHF) =  -904.013278562     A.U. after   14 cycles
 SCF Done:  E(RHF) =  -904.013029430     A.U. after   14 cycles
 SCF Done:  E(RHF) =  -904.013446152     A.U. after   13 cycles
 SCF Done:  E(RHF) =  -904.013538759     A.U. after   13 cycles
 SCF Done:  E(RHF) =  -904.013588787     A.U. after   13 cycles
 SCF Done:  E(RHF) =  -904.013576775     A.U. after   12 cycles
 SCF Done:  E(RHF) =  -904.013622812     A.U. after   12 cycles
 SCF Done:  E(RHF) =  -904.013631967     A.U. after   11 cycles
 SCF Done:  E(RHF) =  -904.013636308     A.U. after   10 cycles
 SCF Done:  E(RHF) =  -904.013637987     A.U. after   11 cycles
 SCF Done:  E(RHF) =  -904.013638319     A.U. after   10 cycles
 Optimization completed.
    -- Stationary point found.

                         Standard orientation:
 ---------------------------------------------------------------------
 Center     Atomic      Atomic             Coordinates (Angstroms)
 Number     Number       Type             X           Y           Z
 ---------------------------------------------------------------------
      1          7           0        0.683932    1.118462   -0.289691
      2          1           0       -0.058330    1.228537   -0.945028
      3          6           0        0.655259   -0.023327    0.603151
      4          1           0        1.235415    0.248946    1.476693
      5          6           0        1.300793   -1.271104   -0.015822
      6          8           0        0.654008   -2.265387   -0.210834
      7          6           0       -0.760409   -0.332999    1.076881
      8         16           0       -1.912961   -0.776631   -0.288267
      9          6           0       -3.012675    0.527942   -0.150704
     10          7           0       -3.747481    1.394501   -0.090563
     11          1           0       -0.738748   -1.179217    1.744731
     12          1           0       -1.171081    0.518204    1.597739
     13          6           0        1.736732    1.953319   -0.365699
     14          8           0        2.750974    1.827374    0.262618
     15          7           0        2.607223   -1.158509   -0.292658
     16          1           0        1.583589    2.774247   -1.062864
     17          1           0        3.118790   -0.327556   -0.088871
     18          1           0        3.073951   -1.937121   -0.700856
 ---------------------------------------------------------------------

 The electronic state is 1-A.
 Alpha  occ. eigenvalues --  -92.00887 -20.56491 -20.55082 -15.62678 -15.59759
 Alpha  occ. eigenvalues --  -15.58732 -11.38088 -11.37287 -11.31852 -11.30460
 Alpha  occ. eigenvalues --  -11.29875  -9.01707  -6.69987  -6.69798  -6.69607
 Alpha  occ. eigenvalues --   -1.42943  -1.41664  -1.28165  -1.24221  -1.23244
 Alpha  occ. eigenvalues --   -1.11855  -1.03075  -0.91570  -0.86698  -0.81412
 Alpha  occ. eigenvalues --   -0.77454  -0.75565  -0.71205  -0.69783  -0.66924
 Alpha  occ. eigenvalues --   -0.64077  -0.63062  -0.60508  -0.59495  -0.58658
 Alpha  occ. eigenvalues --   -0.57502  -0.55686  -0.52798  -0.52568  -0.47578
 Alpha  occ. eigenvalues --   -0.46024  -0.45694  -0.42896  -0.41552  -0.38586
 Alpha virt. eigenvalues --    0.13443   0.15899   0.18658   0.19700   0.20243
 Alpha virt. eigenvalues --    0.22229   0.23089   0.23824   0.24875   0.27934
 Alpha virt. eigenvalues --    0.28427   0.30353   0.32400   0.34269   0.36976

 Mulliken atomic charges:
              1
     1  N   -0.765674
     2  H    0.419877
     3  C   -0.081399
     4  H    0.251383
     5  C    0.780381
     6  O   -0.607499
     7  C   -0.501495
     8  S    0.307987
     9  C    0.066389
    10  N   -0.391721
    11  H    0.251943
    12  H    0.248117
    13  C    0.519774
    14  O   -0.587866
    15  N   -0.938489
    16  H    0.183896
    17  H    0.442386
    18  H    0.402010
 Sum of Mulliken atomic charges =   0.00000

 Dipole moment (field-independent basis, Debye):
    X=              3.1439    Y=              0.2675    Z=             -0.0474  Tot=              3.1556
 Quadrupole moment (field-independent basis, Debye-Ang):
   XX=            -87.0027   YY=            -79.3828   ZZ=            -65.8439
   XY=              0.1841   XZ=             -4.6233   YZ=             -4.7030

 Normal termination of Gaussian 09 at Tue Dec 31 08:58:04 2019.
