 Gaussian 09, Revision A.02,
 Gaussian 09:  EM64L-G09RevA.02 11-Jun-2009

 ------------------------------------------------------------------
 #P MP2/6-311++G** SP SCF=(qc,maxcycle=800) Guess=Indo MaxDisk=50GB
 ------------------------------------------------------------------

 --------------------------------------------------------------------
 ModifiedRes Rotatable Bond SP Calculation on bme-nova.bme.utexas.edu
 --------------------------------------------------------------------
 Symbolic Z-matrix:
 Charge =  0 Multiplicity = 1

                         Standard orientation:
 ---------------------------------------------------------------------
 Center     Atomic      Atomic             Coordinates (Angstroms)
 Number     Number       Type             X           Y           Z
 ---------------------------------------------------------------------
      1          7           0       -0.375711    0.917942    0.572000
      2          1           0        0.235986    0.858634    1.381721
      3          6           0       -0.579588   -0.268640   -0.286905
      4          1           0       -0.768853    0.097461   -1.305479
      5          6           0       -1.818836   -1.065022    0.187375
      6          8           0       -1.682136   -2.155780    0.746623
      7          6           0        0.660795   -1.188575   -0.294349
      8         16           0        2.089903   -0.312307   -1.056884
      9          6           0        2.910565    0.116878    0.369770
     10          7           0        3.435715    0.446110    1.380792
     11          1           0        0.869569   -1.533917    0.720360
     12          1           0        0.456679   -2.064833   -0.913941
     13          6           0       -0.988359    2.112228    0.321718
     14          8           0       -1.813537    2.269823   -0.585783
     15          7           0       -3.024724   -0.488934   -0.064063
     16          1           0       -0.689103    2.925256    1.001824
     17          1           0       -3.082283    0.426036   -0.502736
     18          1           0       -3.849473   -0.991114    0.234938
 ---------------------------------------------------------------------

 SCF Done:  E(RHF) =  -904.162811135     a.u. after   12 cycles
 E2 =    -0.1757030661D+01 EUMP2 =    -0.90591984179531D+03

 The electronic state is 1-A.
 Alpha  occ. eigenvalues --  -92.03322 -20.55921 -20.54488 -15.63167 -15.60689
 Alpha  occ. eigenvalues --  -15.60144 -11.39111 -11.38250 -11.33196 -11.32429
 Alpha  occ. eigenvalues --  -11.31684  -9.03460  -6.71714  -6.71530  -6.71381
 Alpha  occ. eigenvalues --   -1.41069  -1.39897  -1.27176  -1.23522  -1.22656
 Alpha  occ. eigenvalues --   -1.12435  -1.03548  -0.91872  -0.86532  -0.81015
 Alpha  occ. eigenvalues --   -0.76454  -0.75252  -0.71965  -0.69308  -0.67745
 Alpha  occ. eigenvalues --   -0.63755  -0.63342  -0.60524  -0.59184  -0.58074
 Alpha  occ. eigenvalues --   -0.57238  -0.56478  -0.53751  -0.52770  -0.47253
 Alpha  occ. eigenvalues --   -0.46620  -0.46360  -0.42956  -0.42160  -0.39612
 Alpha virt. eigenvalues --    0.03580   0.04202   0.04961   0.05938   0.06847
 Alpha virt. eigenvalues --    0.07469   0.08437   0.09110   0.09645   0.10235
 Alpha virt. eigenvalues --    0.10795   0.11627   0.12314   0.12938   0.13275

 Mulliken atomic charges:
              1
     1  N   -0.081375
     2  H    0.341549
     3  C   -0.612788
     4  H    0.266295
     5  C    0.273945
     6  O   -0.413192
     7  C   -0.416414
     8  S    0.498578
     9  C   -0.372243
    10  N   -0.183658
    11  H    0.260533
    12  H    0.288464
    13  C    0.276059
    14  O   -0.461699
    15  N   -0.514728
    16  H    0.163589
    17  H    0.320893
    18  H    0.366192
 Sum of Mulliken atomic charges =   0.00000

 Dipole moment (field-independent basis, Debye):
    X=             -1.7491    Y=              0.3805    Z=             -1.2388  Tot=              2.1768
 Quadrupole moment (field-independent basis, Debye-Ang):
   XX=            -80.9251   YY=            -80.7785   ZZ=            -74.0447
   XY=             -1.4959   XZ=             -7.0956   YZ=              9.1737

 Normal termination of Gaussian 09 at Tue Dec 31 09:11:23 2019.
