 Gaussian 09, Revision A.02,
 Gaussian 09:  EM64L-G09RevA.02 11-Jun-2009

 ------------------------------------------------------------------
 #P MP2/6-311++G** SP SCF=(qc,maxcycle=800) Guess=Indo MaxDisk=50GB
 ------------------------------------------------------------------

 --------------------------------------------------------------------
 ModifiedRes Rotatable Bond SP Calculation on bme-nova.bme.utexas.edu
 --------------------------------------------------------------------
 Symbolic Z-matrix:
 Charge =  0 Multiplicity = 1

                         Standard orientation:
 ---------------------------------------------------------------------
 Center     Atomic      Atomic             Coordinates (Angstroms)
 Number     Number       Type             X           Y           Z
 ---------------------------------------------------------------------
      1          7           0        1.246788    1.000445   -0.331234
      2          1           0        1.683323    1.147179   -1.233947
      3          6           0        0.742068   -0.268415    0.230340
      4          1           0        0.596001   -0.137438    1.309860
      5          6           0        1.756397   -1.402812   -0.048955
      6          8           0        2.346935   -1.451166   -1.128136
      7          6           0       -0.600500   -0.672460   -0.409477
      8         16           0       -1.854138    0.667171   -0.189862
      9          6           0       -3.233069   -0.298857    0.055427
     10          7           0       -4.171682   -0.991850    0.266279
     11          1           0       -0.467469   -0.848624   -1.480424
     12          1           0       -0.983135   -1.583459    0.057575
     13          6           0        1.533870    2.057922    0.485281
     14          8           0        1.268132    3.224675    0.192926
     15          7           0        1.886805   -2.344350    0.924673
     16          1           0        2.047269    1.789758    1.423527
     17          1           0        1.405336   -2.278028    1.813269
     18          1           0        2.538375   -3.094175    0.735880
 ---------------------------------------------------------------------

 SCF Done:  E(RHF) =  -904.130456124     a.u. after   12 cycles
 E2 =    -0.1757003168D+01 EUMP2 =    -0.90588745929220D+03

 The electronic state is 1-A.
 Alpha  occ. eigenvalues --  -92.03026 -20.56239 -20.56115 -15.63151 -15.60554
 Alpha  occ. eigenvalues --  -15.60199 -11.40082 -11.37980 -11.35005 -11.32222
 Alpha  occ. eigenvalues --  -11.31793  -9.03136  -6.71375  -6.71196  -6.71042
 Alpha  occ. eigenvalues --   -1.41905  -1.40212  -1.26674  -1.25356  -1.22945
 Alpha  occ. eigenvalues --   -1.12459  -1.03836  -0.91660  -0.86354  -0.84050
 Alpha  occ. eigenvalues --   -0.78160  -0.74196  -0.71295  -0.68803  -0.68627
 Alpha  occ. eigenvalues --   -0.66512  -0.63912  -0.63220  -0.60214  -0.57883
 Alpha  occ. eigenvalues --   -0.56936  -0.54339  -0.53488  -0.52255  -0.47576
 Alpha  occ. eigenvalues --   -0.46104  -0.45763  -0.45234  -0.42069  -0.39173
 Alpha virt. eigenvalues --    0.01720   0.04184   0.05060   0.05222   0.06999
 Alpha virt. eigenvalues --    0.07083   0.07641   0.08142   0.09733   0.10025
 Alpha virt. eigenvalues --    0.11424   0.11939   0.12092   0.12902   0.13107

 Mulliken atomic charges:
              1
     1  N   -0.099891
     2  H    0.366241
     3  C   -0.665544
     4  H    0.190205
     5  C    0.371233
     6  O   -0.408876
     7  C   -0.214677
     8  S    0.329273
     9  C   -0.202618
    10  N   -0.210393
    11  H    0.238002
    12  H    0.164821
    13  C    0.131610
    14  O   -0.327382
    15  N   -0.462754
    16  H    0.159562
    17  H    0.274301
    18  H    0.366886
 Sum of Mulliken atomic charges =   0.00000

 Dipole moment (field-independent basis, Debye):
    X=              3.6868    Y=             -3.9470    Z=              3.2543  Tot=              6.3057
 Quadrupole moment (field-independent basis, Debye-Ang):
   XX=            -94.0555   YY=            -83.3509   ZZ=            -68.4619
   XY=             -9.7228   XZ=             10.0094   YZ=             -6.8441

 Normal termination of Gaussian 09 at Mon Dec 30 09:47:32 2019.
