 Gaussian 09, Revision A.02,
 Gaussian 09:  EM64L-G09RevA.02 11-Jun-2009

 ---------------------------------------------
 #P opt=(,maxcycle=400) HF/6-31G* MaxDisk=50GB
 ---------------------------------------------

 ------------------------------------------------------------------
 ModifiedRes Rotatable Bond Optimization on bme-nova.bme.utexas.edu
 ------------------------------------------------------------------
 Symbolic Z-matrix:
 Charge =  0 Multiplicity = 1

 SCF Done:  E(RHF) =  -903.988609415     A.U. after   16 cycles
 SCF Done:  E(RHF) =  -904.004830833     A.U. after   15 cycles
 SCF Done:  E(RHF) =  -904.007141397     A.U. after   15 cycles
 SCF Done:  E(RHF) =  -904.007107829     A.U. after   16 cycles
 SCF Done:  E(RHF) =  -904.007869203     A.U. after   14 cycles
 SCF Done:  E(RHF) =  -904.008256344     A.U. after   14 cycles
 SCF Done:  E(RHF) =  -904.008276265     A.U. after   14 cycles
 SCF Done:  E(RHF) =  -904.008726168     A.U. after   14 cycles
 SCF Done:  E(RHF) =  -903.979965578     A.U. after   15 cycles
 SCF Done:  E(RHF) =  -904.009388246     A.U. after   15 cycles
 SCF Done:  E(RHF) =  -904.011825717     A.U. after   13 cycles
 SCF Done:  E(RHF) =  -904.012132162     A.U. after   15 cycles
 SCF Done:  E(RHF) =  -904.012249166     A.U. after   14 cycles
 SCF Done:  E(RHF) =  -904.012291580     A.U. after   13 cycles
 SCF Done:  E(RHF) =  -904.012345850     A.U. after   13 cycles
 SCF Done:  E(RHF) =  -904.012363789     A.U. after   12 cycles
 SCF Done:  E(RHF) =  -904.012374457     A.U. after   11 cycles
 SCF Done:  E(RHF) =  -904.012376277     A.U. after   18 cycles
 SCF Done:  E(RHF) =  -904.012376715     A.U. after   18 cycles
 SCF Done:  E(RHF) =  -904.012376777     A.U. after    8 cycles
 Optimization completed.
    -- Stationary point found.

                         Standard orientation:
 ---------------------------------------------------------------------
 Center     Atomic      Atomic             Coordinates (Angstroms)
 Number     Number       Type             X           Y           Z
 ---------------------------------------------------------------------
      1          7           0        1.511673   -0.654245    1.052860
      2          1           0        1.621014   -0.358447    1.997833
      3          6           0        0.450973   -0.060808    0.253477
      4          1           0        0.247169   -0.748900   -0.554146
      5          6           0        0.921832    1.287615   -0.311616
      6          8           0        0.625660    2.321793    0.221695
      7          6           0       -0.789270    0.117872    1.121065
      8         16           0       -2.262118    0.640829    0.176345
      9          6           0       -2.729899   -0.877397   -0.452881
     10          7           0       -3.051766   -1.880631   -0.881481
     11          1           0       -1.022186   -0.797637    1.644516
     12          1           0       -0.633867    0.911832    1.837295
     13          6           0        2.486353   -1.408785    0.502571
     14          8           0        2.563631   -1.674099   -0.662307
     15          7           0        1.692614    1.196662   -1.407249
     16          1           0        3.209828   -1.770522    1.230743
     17          1           0        2.035178    0.315932   -1.724239
     18          1           0        2.114839    2.029449   -1.753239
 ---------------------------------------------------------------------

 The electronic state is 1-A.
 Alpha  occ. eigenvalues --  -92.00865 -20.56458 -20.54496 -15.62796 -15.59431
 Alpha  occ. eigenvalues --  -15.58746 -11.38036 -11.36827 -11.31374 -11.30274
 Alpha  occ. eigenvalues --  -11.29858  -9.01736  -6.70030  -6.69843  -6.69642
 Alpha  occ. eigenvalues --   -1.42889  -1.41177  -1.27995  -1.24172  -1.22911
 Alpha  occ. eigenvalues --   -1.12157  -1.02501  -0.91627  -0.86258  -0.81382
 Alpha  occ. eigenvalues --   -0.77042  -0.75258  -0.70998  -0.69362  -0.67133
 Alpha  occ. eigenvalues --   -0.63758  -0.62945  -0.61648  -0.58418  -0.57544
 Alpha  occ. eigenvalues --   -0.56719  -0.55816  -0.53264  -0.52323  -0.47143
 Alpha  occ. eigenvalues --   -0.46743  -0.45118  -0.42620  -0.41421  -0.38527
 Alpha virt. eigenvalues --    0.13038   0.16243   0.18968   0.19916   0.19981
 Alpha virt. eigenvalues --    0.21904   0.23450   0.23761   0.24124   0.27340
 Alpha virt. eigenvalues --    0.29128   0.30640   0.31369   0.35216   0.37765

 Mulliken atomic charges:
              1
     1  N   -0.768079
     2  H    0.399321
     3  C   -0.066781
     4  H    0.257279
     5  C    0.775388
     6  O   -0.611098
     7  C   -0.522288
     8  S    0.311116
     9  C    0.084188
    10  N   -0.382742
    11  H    0.242444
    12  H    0.251670
    13  C    0.520997
    14  O   -0.575395
    15  N   -0.926918
    16  H    0.177526
    17  H    0.434835
    18  H    0.398537
 Sum of Mulliken atomic charges =   0.00000

 Dipole moment (field-independent basis, Debye):
    X=              3.6594    Y=              0.8507    Z=              3.5270  Tot=              5.1531
 Quadrupole moment (field-independent basis, Debye-Ang):
   XX=            -74.8496   YY=            -86.0777   ZZ=            -63.7274
   XY=             -3.9861   XZ=              0.4444   YZ=            -10.1428

 Normal termination of Gaussian 09 at Tue Dec 31 09:00:12 2019.
