 Gaussian 09, Revision A.02,
 Gaussian 09:  EM64L-G09RevA.02 11-Jun-2009

 ------------------------------------------------------------------
 #P MP2/6-311++G** SP SCF=(qc,maxcycle=800) Guess=Indo MaxDisk=50GB
 ------------------------------------------------------------------

 --------------------------------------------------------------------
 ModifiedRes Rotatable Bond SP Calculation on bme-nova.bme.utexas.edu
 --------------------------------------------------------------------
 Symbolic Z-matrix:
 Charge =  0 Multiplicity = 1

                         Standard orientation:
 ---------------------------------------------------------------------
 Center     Atomic      Atomic             Coordinates (Angstroms)
 Number     Number       Type             X           Y           Z
 ---------------------------------------------------------------------
      1          7           0        1.019546   -1.241401   -0.422432
      2          1           0        0.335605   -1.915908   -0.757446
      3          6           0        0.529375    0.150681   -0.593659
      4          1           0        0.388275    0.271010   -1.676272
      5          6           0        1.485751    1.317461   -0.147701
      6          8           0        0.982514    2.396324    0.181633
      7          6           0       -0.809406    0.420795    0.148771
      8         16           0       -2.099422   -0.785874   -0.366729
      9          6           0       -3.493579    0.004729    0.198764
     10          7           0       -4.453222    0.554678    0.623867
     11          1           0       -0.668178    0.339706    1.229246
     12          1           0       -1.162974    1.422681   -0.107372
     13          6           0        2.048617   -1.831157    0.261000
     14          8           0        2.977911   -1.267420    0.841210
     15          7           0        2.833707    1.204124   -0.242337
     16          1           0        1.984751   -2.931928    0.224079
     17          1           0        3.317285    0.322763   -0.154480
     18          1           0        3.347820    2.037575    0.010423
 ---------------------------------------------------------------------

 SCF Done:  E(RHF) =  -904.140393671     a.u. after   12 cycles
 E2 =    -0.1757355934D+01 EUMP2 =    -0.90589774960475D+03

 The electronic state is 1-A.
 Alpha  occ. eigenvalues --  -92.03274 -20.56787 -20.54354 -15.64603 -15.60532
 Alpha  occ. eigenvalues --  -15.59065 -11.40528 -11.39127 -11.35287 -11.32078
 Alpha  occ. eigenvalues --  -11.31503  -9.03459  -6.71735  -6.71550  -6.71400
 Alpha  occ. eigenvalues --   -1.42101  -1.40212  -1.28479  -1.23168  -1.22039
 Alpha  occ. eigenvalues --   -1.12590  -1.04282  -0.91991  -0.87887  -0.79223
 Alpha  occ. eigenvalues --   -0.78983  -0.74297  -0.70527  -0.70242  -0.68697
 Alpha  occ. eigenvalues --   -0.64578  -0.63213  -0.61484  -0.60636  -0.58654
 Alpha  occ. eigenvalues --   -0.57214  -0.55985  -0.53800  -0.52317  -0.47724
 Alpha  occ. eigenvalues --   -0.46086  -0.45266  -0.44400  -0.42214  -0.39643
 Alpha virt. eigenvalues --    0.02317   0.04247   0.05084   0.05666   0.06619
 Alpha virt. eigenvalues --    0.07652   0.08176   0.08595   0.09858   0.10287
 Alpha virt. eigenvalues --    0.10749   0.12183   0.12552   0.12675   0.13443

 Mulliken atomic charges:
              1
     1  N   -0.219309
     2  H    0.322517
     3  C   -0.058655
     4  H    0.272941
     5  C    0.068848
     6  O   -0.398482
     7  C   -0.341078
     8  S    0.031095
     9  C   -0.056474
    10  N   -0.199863
    11  H    0.263944
    12  H    0.231088
    13  C    0.205684
    14  O   -0.452404
    15  N   -0.481982
    16  H    0.155103
    17  H    0.331282
    18  H    0.325746
 Sum of Mulliken atomic charges =   0.00000

 Dipole moment (field-independent basis, Debye):
    X=              3.1395    Y=             -4.3561    Z=             -2.8923  Tot=              6.0990
 Quadrupole moment (field-independent basis, Debye-Ang):
   XX=            -95.7418   YY=            -73.5981   ZZ=            -73.9125
   XY=              5.3905   XZ=             -0.4065   YZ=              0.9682

 Normal termination of Gaussian 09 at Mon Dec 30 09:58:26 2019.
