 Gaussian 09, Revision A.02,
 Gaussian 09:  EM64L-G09RevA.02 11-Jun-2009

 ------------------------------------------------------------------
 #P MP2/6-311++G** SP SCF=(qc,maxcycle=800) Guess=Indo MaxDisk=50GB
 ------------------------------------------------------------------

 --------------------------------------------------------------------
 ModifiedRes Rotatable Bond SP Calculation on bme-nova.bme.utexas.edu
 --------------------------------------------------------------------
 Symbolic Z-matrix:
 Charge =  0 Multiplicity = 1

                         Standard orientation:
 ---------------------------------------------------------------------
 Center     Atomic      Atomic             Coordinates (Angstroms)
 Number     Number       Type             X           Y           Z
 ---------------------------------------------------------------------
      1          7           0        1.079989   -0.881242    0.855052
      2          1           0        0.762485   -0.846189    1.819325
      3          6           0        0.600076    0.131951   -0.107561
      4          1           0        0.670372   -0.323592   -1.104928
      5          6           0        1.505729    1.385384   -0.054209
      6          8           0        1.114887    2.412254    0.505302
      7          6           0       -0.864101    0.526122    0.180702
      8         16           0       -1.989566   -0.836369   -0.332735
      9          6           0       -3.479278   -0.046709   -0.116351
     10          7           0       -4.509664    0.508438    0.070820
     11          1           0       -1.010580    0.741685    1.240877
     12          1           0       -1.117974    1.425045   -0.385911
     13          6           0        2.060713   -1.777561    0.537761
     14          8           0        2.622774   -1.801646   -0.562937
     15          7           0        2.720636    1.261833   -0.652301
     16          1           0        2.308234   -2.482505    1.347081
     17          1           0        3.014431    0.375516   -1.053436
     18          1           0        3.329243    2.068755   -0.635215
 ---------------------------------------------------------------------

 SCF Done:  E(RHF) =  -904.161659099     a.u. after   11 cycles
 E2 =    -0.1755489598D+01 EUMP2 =    -0.90591714869736D+03

 The electronic state is 1-A.
 Alpha  occ. eigenvalues --  -92.02824 -20.56605 -20.54809 -15.63965 -15.60610
 Alpha  occ. eigenvalues --  -15.60094 -11.39800 -11.38718 -11.33872 -11.31611
 Alpha  occ. eigenvalues --  -11.31500  -9.02972  -6.71231  -6.71048  -6.70893
 Alpha  occ. eigenvalues --   -1.41741  -1.40275  -1.27904  -1.23132  -1.22772
 Alpha  occ. eigenvalues --   -1.12339  -1.03679  -0.91734  -0.87201  -0.81720
 Alpha  occ. eigenvalues --   -0.76833  -0.75777  -0.71819  -0.70098  -0.67540
 Alpha  occ. eigenvalues --   -0.64357  -0.63111  -0.61506  -0.59099  -0.58514
 Alpha  occ. eigenvalues --   -0.57109  -0.56597  -0.53385  -0.51944  -0.47767
 Alpha  occ. eigenvalues --   -0.47102  -0.45815  -0.43351  -0.42659  -0.39087
 Alpha virt. eigenvalues --    0.02598   0.04135   0.05126   0.05544   0.07329
 Alpha virt. eigenvalues --    0.07531   0.08403   0.08669   0.09459   0.10592
 Alpha virt. eigenvalues --    0.10785   0.11874   0.12632   0.12714   0.13180

 Mulliken atomic charges:
              1
     1  N   -0.095589
     2  H    0.330404
     3  C   -0.279544
     4  H    0.272765
     5  C    0.142043
     6  O   -0.404478
     7  C   -0.486571
     8  S    0.171817
     9  C   -0.119232
    10  N   -0.198494
    11  H    0.238317
    12  H    0.237801
    13  C    0.290690
    14  O   -0.449855
    15  N   -0.498928
    16  H    0.158896
    17  H    0.317956
    18  H    0.372003
 Sum of Mulliken atomic charges =   0.00000

 Dipole moment (field-independent basis, Debye):
    X=              4.3456    Y=             -2.2731    Z=              1.4033  Tot=              5.1010
 Quadrupole moment (field-independent basis, Debye-Ang):
   XX=            -92.8158   YY=            -81.0301   ZZ=            -67.9386
   XY=              7.0581   XZ=              3.4095   YZ=            -10.1500

 Normal termination of Gaussian 09 at Tue Dec 31 09:03:28 2019.
