 Gaussian 09, Revision A.02,
 Gaussian 09:  EM64L-G09RevA.02 11-Jun-2009

 ---------------------------------------------
 #P opt=(,maxcycle=400) HF/6-31G* MaxDisk=50GB
 ---------------------------------------------

 ------------------------------------------------------------------
 ModifiedRes Rotatable Bond Optimization on bme-nova.bme.utexas.edu
 ------------------------------------------------------------------
 Symbolic Z-matrix:
 Charge =  0 Multiplicity = 1

 SCF Done:  E(RHF) =  -903.977135647     A.U. after   16 cycles
 SCF Done:  E(RHF) =  -903.992624305     A.U. after   14 cycles
 SCF Done:  E(RHF) =  -903.994753351     A.U. after   14 cycles
 SCF Done:  E(RHF) =  -903.995258455     A.U. after   17 cycles
 SCF Done:  E(RHF) =  -903.996766842     A.U. after   13 cycles
 SCF Done:  E(RHF) =  -903.997191455     A.U. after   14 cycles
 SCF Done:  E(RHF) =  -903.998503495     A.U. after   17 cycles
 SCF Done:  E(RHF) =  -904.000200385     A.U. after   16 cycles
 SCF Done:  E(RHF) =  -904.001763830     A.U. after   14 cycles
 SCF Done:  E(RHF) =  -904.004980299     A.U. after   13 cycles
 SCF Done:  E(RHF) =  -904.007160534     A.U. after   13 cycles
 SCF Done:  E(RHF) =  -904.007330644     A.U. after   13 cycles
 SCF Done:  E(RHF) =  -904.007419006     A.U. after   13 cycles
 SCF Done:  E(RHF) =  -904.007447802     A.U. after   12 cycles
 SCF Done:  E(RHF) =  -904.007457521     A.U. after   12 cycles
 SCF Done:  E(RHF) =  -904.007462238     A.U. after   11 cycles
 SCF Done:  E(RHF) =  -904.007469163     A.U. after   12 cycles
 SCF Done:  E(RHF) =  -904.007473185     A.U. after   11 cycles
 SCF Done:  E(RHF) =  -904.007473592     A.U. after   10 cycles
 SCF Done:  E(RHF) =  -904.007473603     A.U. after    9 cycles
 Optimization completed.
    -- Stationary point found.

                         Standard orientation:
 ---------------------------------------------------------------------
 Center     Atomic      Atomic             Coordinates (Angstroms)
 Number     Number       Type             X           Y           Z
 ---------------------------------------------------------------------
      1          7           0       -1.096655    0.887449    0.764832
      2          1           0       -0.966372    0.710901    1.737374
      3          6           0       -0.793277   -0.178082   -0.166065
      4          1           0       -0.883406    0.249286   -1.157017
      5          6           0       -1.808569   -1.329289   -0.109561
      6          8           0       -1.502637   -2.431075   -0.465494
      7          6           0        0.614828   -0.749263    0.021089
      8         16           0        1.860082    0.548905   -0.336942
      9          6           0        3.259031   -0.311266    0.123934
     10          7           0        4.203887   -0.863230    0.433774
     11          1           0        0.757238   -1.094975    1.035997
     12          1           0        0.761414   -1.577164   -0.650839
     13          6           0       -1.211986    2.186412    0.377835
     14          8           0       -1.235248    2.558929   -0.753807
     15          7           0       -3.039108   -1.010346    0.334929
     16          1           0       -1.305226    2.867857    1.222053
     17          1           0       -3.308136   -0.068646    0.495847
     18          1           0       -3.750781   -1.700767    0.243936
 ---------------------------------------------------------------------

 The electronic state is 1-A.
 Alpha  occ. eigenvalues --  -92.00648 -20.56590 -20.55201 -15.62964 -15.60794
 Alpha  occ. eigenvalues --  -15.58590 -11.38152 -11.37935 -11.32176 -11.30017
 Alpha  occ. eigenvalues --  -11.29777  -9.01554  -6.69861  -6.69671  -6.69464
 Alpha  occ. eigenvalues --   -1.43132  -1.42168  -1.28645  -1.24016  -1.23706
 Alpha  occ. eigenvalues --   -1.11801  -1.03203  -0.91394  -0.86031  -0.82965
 Alpha  occ. eigenvalues --   -0.78263  -0.74890  -0.71127  -0.69886  -0.66596
 Alpha  occ. eigenvalues --   -0.64424  -0.62699  -0.62003  -0.60967  -0.58535
 Alpha  occ. eigenvalues --   -0.55916  -0.55830  -0.53042  -0.52077  -0.47015
 Alpha  occ. eigenvalues --   -0.46162  -0.45832  -0.43771  -0.41847  -0.38438
 Alpha virt. eigenvalues --    0.12811   0.17222   0.17710   0.19426   0.20533
 Alpha virt. eigenvalues --    0.20836   0.22413   0.23125   0.24481   0.26813
 Alpha virt. eigenvalues --    0.27933   0.28372   0.30510   0.35298   0.38892

 Mulliken atomic charges:
              1
     1  N   -0.788172
     2  H    0.397154
     3  C   -0.109779
     4  H    0.283108
     5  C    0.769754
     6  O   -0.592836
     7  C   -0.487775
     8  S    0.293670
     9  C    0.082364
    10  N   -0.380665
    11  H    0.220814
    12  H    0.274166
    13  C    0.512289
    14  O   -0.544697
    15  N   -0.913091
    16  H    0.172469
    17  H    0.406446
    18  H    0.404779
 Sum of Mulliken atomic charges =   0.00000

 Dipole moment (field-independent basis, Debye):
    X=             -5.6895    Y=              1.6927    Z=              3.3906  Tot=              6.8361
 Quadrupole moment (field-independent basis, Debye-Ang):
   XX=            -79.3276   YY=            -84.5593   ZZ=            -68.9450
   XY=              4.4724   XZ=             -7.9511   YZ=              6.1425

 Normal termination of Gaussian 09 at Mon Dec 30 10:03:23 2019.
