 Gaussian 09, Revision A.02,
 Gaussian 09:  EM64L-G09RevA.02 11-Jun-2009

 ------------------------------------------------------------------
 #P MP2/6-311++G** SP SCF=(qc,maxcycle=800) Guess=Indo MaxDisk=50GB
 ------------------------------------------------------------------

 --------------------------------------------------------------------
 ModifiedRes Rotatable Bond SP Calculation on bme-nova.bme.utexas.edu
 --------------------------------------------------------------------
 Symbolic Z-matrix:
 Charge =  0 Multiplicity = 1

                         Standard orientation:
 ---------------------------------------------------------------------
 Center     Atomic      Atomic             Coordinates (Angstroms)
 Number     Number       Type             X           Y           Z
 ---------------------------------------------------------------------
      1          7           0        1.082594   -0.948298    0.754619
      2          1           0        0.784152   -1.039845    1.721546
      3          6           0        0.558100    0.155079   -0.076041
      4          1           0        0.514230   -0.206259   -1.112743
      5          6           0        1.525640    1.361871   -0.004408
      6          8           0        1.256174    2.334860    0.703937
      7          6           0       -0.848711    0.599642    0.378813
      8         16           0       -2.025605   -0.813694    0.281843
      9          6           0       -3.391692   -0.005157   -0.326740
     10          7           0       -4.323604    0.568404   -0.782190
     11          1           0       -0.832291    0.947681    1.414061
     12          1           0       -1.159178    1.435479   -0.252112
     13          6           0        1.984011   -1.854420    0.272740
     14          8           0        2.474631   -1.784585   -0.859909
     15          7           0        2.652745    1.259684   -0.757897
     16          1           0        2.243043   -2.654966    0.983665
     17          1           0        2.867759    0.397895   -1.251750
     18          1           0        3.299281    2.036305   -0.732276
 ---------------------------------------------------------------------

 SCF Done:  E(RHF) =  -904.160226905     a.u. after   12 cycles
 E2 =    -0.1756325178D+01 EUMP2 =    -0.90591655208316D+03

 The electronic state is 1-A.
 Alpha  occ. eigenvalues --  -92.03018 -20.56589 -20.54627 -15.64036 -15.60399
 Alpha  occ. eigenvalues --  -15.60075 -11.39802 -11.38477 -11.33618 -11.31706
 Alpha  occ. eigenvalues --  -11.31541  -9.03167  -6.71427  -6.71243  -6.71094
 Alpha  occ. eigenvalues --   -1.41674  -1.40096  -1.27910  -1.22961  -1.22797
 Alpha  occ. eigenvalues --   -1.12304  -1.03700  -0.91800  -0.87250  -0.81405
 Alpha  occ. eigenvalues --   -0.76721  -0.75631  -0.71506  -0.70709  -0.67726
 Alpha  occ. eigenvalues --   -0.64164  -0.62485  -0.61871  -0.59085  -0.57987
 Alpha  occ. eigenvalues --   -0.57020  -0.56460  -0.53667  -0.52104  -0.47669
 Alpha  occ. eigenvalues --   -0.47078  -0.45947  -0.43181  -0.42526  -0.39177
 Alpha virt. eigenvalues --    0.02548   0.04247   0.04982   0.05678   0.07153
 Alpha virt. eigenvalues --    0.07486   0.08267   0.08717   0.09603   0.10687
 Alpha virt. eigenvalues --    0.10794   0.11415   0.12311   0.12972   0.13206

 Mulliken atomic charges:
              1
     1  N   -0.184059
     2  H    0.355087
     3  C   -0.273685
     4  H    0.272933
     5  C    0.146978
     6  O   -0.407746
     7  C   -0.492342
     8  S    0.358833
     9  C   -0.262064
    10  N   -0.193737
    11  H    0.267782
    12  H    0.226813
    13  C    0.289930
    14  O   -0.457222
    15  N   -0.487610
    16  H    0.156658
    17  H    0.320456
    18  H    0.362996
 Sum of Mulliken atomic charges =   0.00000

 Dipole moment (field-independent basis, Debye):
    X=              3.8945    Y=             -2.4910    Z=              2.3379  Tot=              5.1806
 Quadrupole moment (field-independent basis, Debye-Ang):
   XX=            -90.8857   YY=            -78.8860   ZZ=            -71.1328
   XY=              5.4211   XZ=             -3.0682   YZ=            -10.8793

 Normal termination of Gaussian 09 at Tue Dec 31 09:14:27 2019.
