 Gaussian 09, Revision A.02,
 Gaussian 09:  EM64L-G09RevA.02 11-Jun-2009

 ---------------------------------------------
 #P opt=(,maxcycle=400) HF/6-31G* MaxDisk=50GB
 ---------------------------------------------

 ------------------------------------------------------------------
 ModifiedRes Rotatable Bond Optimization on bme-nova.bme.utexas.edu
 ------------------------------------------------------------------
 Symbolic Z-matrix:
 Charge =  0 Multiplicity = 1

 SCF Done:  E(RHF) =  -903.984150749     A.U. after   16 cycles
 SCF Done:  E(RHF) =  -904.000484041     A.U. after   15 cycles
 SCF Done:  E(RHF) =  -904.003059482     A.U. after   14 cycles
 SCF Done:  E(RHF) =  -904.004557405     A.U. after   16 cycles
 SCF Done:  E(RHF) =  -904.006384671     A.U. after   14 cycles
 SCF Done:  E(RHF) =  -904.007418277     A.U. after   14 cycles
 SCF Done:  E(RHF) =  -904.008782675     A.U. after   16 cycles
 SCF Done:  E(RHF) =  -904.010312672     A.U. after   17 cycles
 SCF Done:  E(RHF) =  -904.010662721     A.U. after   14 cycles
 SCF Done:  E(RHF) =  -904.011275103     A.U. after   13 cycles
 SCF Done:  E(RHF) =  -904.011284966     A.U. after   13 cycles
 SCF Done:  E(RHF) =  -904.011453324     A.U. after   13 cycles
 SCF Done:  E(RHF) =  -904.011466474     A.U. after   12 cycles
 SCF Done:  E(RHF) =  -904.011474784     A.U. after   12 cycles
 SCF Done:  E(RHF) =  -904.011478801     A.U. after   12 cycles
 SCF Done:  E(RHF) =  -904.011480414     A.U. after   11 cycles
 SCF Done:  E(RHF) =  -904.011481001     A.U. after   10 cycles
 SCF Done:  E(RHF) =  -904.011481312     A.U. after   10 cycles
 SCF Done:  E(RHF) =  -904.011481441     A.U. after    9 cycles
 Optimization completed.
    -- Stationary point found.

                         Standard orientation:
 ---------------------------------------------------------------------
 Center     Atomic      Atomic             Coordinates (Angstroms)
 Number     Number       Type             X           Y           Z
 ---------------------------------------------------------------------
      1          7           0        0.972417   -0.886789    0.757381
      2          1           0        0.597766   -0.859715    1.680279
      3          6           0        0.605015    0.165412   -0.176198
      4          1           0        0.716304   -0.245170   -1.170391
      5          6           0        1.544042    1.374243   -0.029589
      6          8           0        1.190630    2.377758    0.522729
      7          6           0       -0.834834    0.613688    0.044319
      8         16           0       -1.956534   -0.821518   -0.177636
      9          6           0       -3.448602    0.001919   -0.101923
     10          7           0       -4.456105    0.526934   -0.052867
     11          1           0       -0.966831    1.027832    1.031709
     12          1           0       -1.092799    1.372214   -0.677732
     13          6           0        1.916311   -1.808163    0.474666
     14          8           0        2.539432   -1.848418   -0.547705
     15          7           0        2.763139    1.195852   -0.566410
     16          1           0        2.061179   -2.532247    1.273540
     17          1           0        3.054842    0.306099   -0.908589
     18          1           0        3.445837    1.905975   -0.421214
 ---------------------------------------------------------------------

 The electronic state is 1-A.
 Alpha  occ. eigenvalues --  -92.01087 -20.56945 -20.54873 -15.63316 -15.59694
 Alpha  occ. eigenvalues --  -15.58905 -11.38515 -11.37294 -11.32194 -11.30398
 Alpha  occ. eigenvalues --  -11.30069  -9.01996  -6.70305  -6.70114  -6.69910
 Alpha  occ. eigenvalues --   -1.43379  -1.41614  -1.28586  -1.24297  -1.23200
 Alpha  occ. eigenvalues --   -1.12243  -1.03302  -0.91355  -0.87051  -0.81773
 Alpha  occ. eigenvalues --   -0.76979  -0.75845  -0.71455  -0.69983  -0.67173
 Alpha  occ. eigenvalues --   -0.64518  -0.62829  -0.62082  -0.58995  -0.58410
 Alpha  occ. eigenvalues --   -0.57098  -0.56106  -0.53403  -0.52336  -0.47405
 Alpha  occ. eigenvalues --   -0.46508  -0.46141  -0.42868  -0.41765  -0.38694
 Alpha virt. eigenvalues --    0.12896   0.15864   0.17637   0.19446   0.20876
 Alpha virt. eigenvalues --    0.21184   0.22431   0.23474   0.24297   0.27395
 Alpha virt. eigenvalues --    0.28397   0.29669   0.32294   0.34514   0.37791

 Mulliken atomic charges:
              1
     1  N   -0.768304
     2  H    0.406842
     3  C   -0.100397
     4  H    0.253893
     5  C    0.775425
     6  O   -0.596820
     7  C   -0.492719
     8  S    0.286089
     9  C    0.084619
    10  N   -0.376553
    11  H    0.246011
    12  H    0.252401
    13  C    0.521822
    14  O   -0.579136
    15  N   -0.934343
    16  H    0.182727
    17  H    0.439002
    18  H    0.399439
 Sum of Mulliken atomic charges =   0.00000

 Dipole moment (field-independent basis, Debye):
    X=              4.1333    Y=             -2.0469    Z=              1.5062  Tot=              4.8520
 Quadrupole moment (field-independent basis, Debye-Ang):
   XX=            -89.2632   YY=            -79.2470   ZZ=            -67.5765
   XY=              6.4382   XZ=              2.5808   YZ=             -8.6389

 Normal termination of Gaussian 09 at Mon Dec 30 09:51:36 2019.
