 Gaussian 09, Revision A.02,
 Gaussian 09:  EM64L-G09RevA.02 11-Jun-2009

 ------------------------------------------------------------------
 #P MP2/6-311++G** SP SCF=(qc,maxcycle=800) Guess=Indo MaxDisk=50GB
 ------------------------------------------------------------------

 --------------------------------------------------------------------
 ModifiedRes Rotatable Bond SP Calculation on bme-nova.bme.utexas.edu
 --------------------------------------------------------------------
 Symbolic Z-matrix:
 Charge =  0 Multiplicity = 1

                         Standard orientation:
 ---------------------------------------------------------------------
 Center     Atomic      Atomic             Coordinates (Angstroms)
 Number     Number       Type             X           Y           Z
 ---------------------------------------------------------------------
      1          7           0       -0.931169   -1.227981   -0.093437
      2          1           0       -0.186826   -1.844607   -0.409595
      3          6           0       -0.511364    0.088614    0.461332
      4          1           0       -0.499687   -0.028190    1.551546
      5          6           0       -1.505334    1.232443    0.078350
      6          8           0       -1.191238    2.041814   -0.798954
      7          6           0        0.892607    0.490483   -0.055199
      8         16           0        2.149983   -0.772678    0.402711
      9          6           0        3.562792    0.034493   -0.087124
     10          7           0        4.565355    0.571832   -0.418633
     11          1           0        0.879822    0.609146   -1.141108
     12          1           0        1.185859    1.441080    0.396699
     13          6           0       -2.164419   -1.723068   -0.426664
     14          8           0       -3.245359   -1.141478   -0.316216
     15          7           0       -2.690533    1.297342    0.738425
     16          1           0       -2.106510   -2.753138   -0.817497
     17          1           0       -3.145773    0.441546    1.024320
     18          1           0       -3.285106    2.068179    0.464960
 ---------------------------------------------------------------------

 SCF Done:  E(RHF) =  -904.142612282     a.u. after   11 cycles
 E2 =    -0.1757363265D+01 EUMP2 =    -0.90589997554648D+03

 The electronic state is 1-A.
 Alpha  occ. eigenvalues --  -92.03594 -20.56171 -20.54915 -15.63925 -15.60769
 Alpha  occ. eigenvalues --  -15.59101 -11.39776 -11.38825 -11.34777 -11.32252
 Alpha  occ. eigenvalues --  -11.31920  -9.03767  -6.72036  -6.71852  -6.71700
 Alpha  occ. eigenvalues --   -1.41510  -1.40155  -1.27847  -1.23396  -1.22436
 Alpha  occ. eigenvalues --   -1.12791  -1.04264  -0.91864  -0.87435  -0.79117
 Alpha  occ. eigenvalues --   -0.77772  -0.74284  -0.71777  -0.70083  -0.68450
 Alpha  occ. eigenvalues --   -0.63942  -0.63097  -0.61490  -0.60741  -0.57550
 Alpha  occ. eigenvalues --   -0.57314  -0.56275  -0.54152  -0.52494  -0.47419
 Alpha  occ. eigenvalues --   -0.46696  -0.46272  -0.43283  -0.42045  -0.39920
 Alpha virt. eigenvalues --    0.02691   0.04106   0.05389   0.05674   0.06592
 Alpha virt. eigenvalues --    0.07530   0.08175   0.09092   0.09438   0.10215
 Alpha virt. eigenvalues --    0.10597   0.11802   0.12135   0.12318   0.13202

 Mulliken atomic charges:
              1
     1  N   -0.189303
     2  H    0.255531
     3  C    0.146195
     4  H    0.242694
     5  C   -0.109079
     6  O   -0.368698
     7  C   -0.684001
     8  S    0.251460
     9  C   -0.203359
    10  N   -0.177428
    11  H    0.287041
    12  H    0.249635
    13  C    0.328783
    14  O   -0.455909
    15  N   -0.361978
    16  H    0.164433
    17  H    0.292346
    18  H    0.331638
 Sum of Mulliken atomic charges =   0.00000

 Dipole moment (field-independent basis, Debye):
    X=             -2.3461    Y=             -3.6335    Z=              2.2992  Tot=              4.8982
 Quadrupole moment (field-independent basis, Debye-Ang):
   XX=           -100.0720   YY=            -70.8923   ZZ=            -73.4348
   XY=             -5.2539   XZ=             -1.6110   YZ=              6.1468

 Normal termination of Gaussian 09 at Mon Dec 30 09:59:02 2019.
