                               Psi4 1.3.2 release

  ==> Input File <==

--------------------------------------------------------------------------
molecule {
0 1
 O    0.689352    0.039423    0.007375
 C   -0.746227    0.016538    0.011051
 H   -1.082880   -0.972273    0.333999
 H   -1.099591    0.256345   -0.995445
 H   -1.092099    0.775472    0.719078
 H    0.967857   -0.844803   -0.295452
}
set optking {
  frozen_dihedral = ("
  ")
}
memory 700MB
set_num_threads(1)
psi4_io.set_default_path("/scratch/bdw2292")
optimize('hf/6-311G*')
clean()
--------------------------------------------------------------------------

    Molecular point group: c1
  Charge       = 0
  Multiplicity = 1
  Basis Set: 6-311G*
    Blend: 6-311G*
  Basis Set: (6-311G* AUX)
    Blend: CC-PVTZ-JKFIT
  @DF-RHF Final Energy:  -115.05946375697171
    Total Energy =                       -115.0594637569717094
    Molecular point group: c1
  Basis Set: 6-311G*
    Blend: 6-311G*
  Basis Set: (6-311G* AUX)
    Blend: CC-PVTZ-JKFIT
  Basis Set: 6-311G*
    Blend: 6-311G*
  Basis Set: (6-311G* AUX)
    Blend: CC-PVTZ-JKFIT
  @DF-RHF Final Energy:  -115.06312525866409
    Total Energy =                       -115.0631252586640869
  Basis Set: 6-311G*
    Blend: 6-311G*
  Basis Set: (6-311G* AUX)
    Blend: CC-PVTZ-JKFIT
  Basis Set: 6-311G*
    Blend: 6-311G*
  @DF-RHF Final Energy:  -115.06317220022014
    Total Energy =                       -115.0631722002201371
  @DF-RHF Final Energy:  -115.06342363846730
    Total Energy =                       -115.0634236384672988
  @DF-RHF Final Energy:  -115.06354159442978
    Total Energy =                       -115.0635415944297790
  @DF-RHF Final Energy:  -115.06370695103908
    Total Energy =                       -115.0637069510390802
  Basis Set: (6-311G* AUX)
    Blend: CC-PVTZ-JKFIT
  Basis Set: 6-311G*
    Blend: 6-311G*
  Basis Set: (6-311G* AUX)
    Blend: CC-PVTZ-JKFIT
  @DF-RHF Final Energy:  -115.06371393589305
    Total Energy =                       -115.0637139358930483
  Basis Set: 6-311G*
    Blend: 6-311G*
  Basis Set: (6-311G* AUX)
    Blend: CC-PVTZ-JKFIT
  Charge       = 0
  Multiplicity = 1
  Basis Set: 6-311G*
    Blend: 6-311G*
  Basis Set: (6-311G* AUX)
    Blend: CC-PVTZ-JKFIT

    Orbital Energies [Eh]
    ---------------------

    Doubly Occupied:

       1A    -20.541658     2A    -11.264801     3A     -1.364450
       4A     -0.928363     5A     -0.696997     6A     -0.622288
       7A     -0.597354     8A     -0.498083     9A     -0.444919

  @DF-RHF Final Energy:  -115.06371457992344

   => Energetics <=

    Nuclear Repulsion Energy =             40.8524374218189266
    One-Electron Energy =                -237.9144793680563623
    Two-Electron Energy =                  81.9983273663139869
    Total Energy =                       -115.0637145799234418

  Dipole Moment: [D]
     X:    -0.9981      Y:    -1.2329      Z:    -1.0867     Total:     1.9228

    Molecular point group: c1
  Basis Set: 6-311G*
    Blend: 6-311G*
  Basis Set: (6-311G* AUX)
    Blend: CC-PVTZ-JKFIT

  -Total Gradient:
     Atom            X                  Y                   Z
    ------   -----------------  -----------------  -----------------
       1       -0.000022268112     0.000010934952    -0.000045718869
       2        0.000002783588     0.000027068313     0.000044782572
       3        0.000006965630     0.000002090719    -0.000016906054
       4        0.000005509591     0.000004274952     0.000004738029
       5       -0.000025560236    -0.000007808601     0.000000557122
       6        0.000032569540    -0.000036560335     0.000012547199

  **** Optimization is complete! (in 8 steps) ****
    Final optimized geometry and variables:
    Molecular point group: c1

    Geometry (in Angstrom), charge = 0, multiplicity = 1:

    O            0.679261627092     0.013760449654     0.057473163103
    C           -0.716108402184     0.026477346031    -0.026709193385
    H           -1.152653764122    -0.908844514436     0.315000799407
    H           -1.060544544445     0.222981253958    -1.039100039524
    H           -1.068514440851     0.821653216881     0.614008937298
    H            1.027917863550    -0.669439501232    -0.484028712859

*** Psi4 exiting successfully. Buy a developer a beer!
