                               Psi4 1.3.2 release

  ==> Input File <==

--------------------------------------------------------------------------
molecule {
0 1
 O    0.707385    0.072303    0.191652
 C   -0.728205    0.040952    0.153218
 H   -1.105588    0.204639    1.166307
 H   -1.054693   -0.922165   -0.248021
 H   -1.063214    0.847629   -0.505465
 H    1.003361   -0.815900   -0.080978
}
set {
 basis 6-311++G(2d,2p)
 e_convergence 10
 d_convergence 10
 scf_type pk
 pcm true
  pcm_scf_type total
}
pcm = {
 Units = Angstrom
 Medium {
 SolverType = IEFPCM
 Solvent = Water
 }
 Cavity {
 RadiiSet = UFF
 Type = GePol
 Scaling = False
 Area = 0.3
 Mode = Implicit
 }
}
memory 700MB
set_num_threads(1)
psi4_io.set_default_path("/scratch/bdw2292")
set freeze_core True
E, wfn = energy('mp2/6-311++G(2d,2p)',return_wfn=True)
clean()
--------------------------------------------------------------------------

    Molecular point group: c1

    Geometry (in Angstrom), charge = 0, multiplicity = 1:

       Center              X                  Y                   Z               Mass
    ------------   -----------------  -----------------  -----------------  -----------------
         O            0.696812534265     0.042429318841     0.028082464856    15.994914619570
         C           -0.738777465735     0.011078318841    -0.010351535144    12.000000000000
         H           -1.116160465735     0.174765318841     1.002737464856     1.007825032230
         H           -1.065265465735    -0.952038681159    -0.411590535144     1.007825032230
         H           -1.073786465735     0.817755318841    -0.669034535144     1.007825032230
         H            0.992788534265    -0.845773681159    -0.244547535144     1.007825032230

  Charge       = 0
  Multiplicity = 1
  Basis Set: 6-311++G(2D,2P)
    Blend: 6-311++G(2D,2P)

    Orbital Energies [Eh]
    ---------------------

    Doubly Occupied:

       1A    -20.562531     2A    -11.268700     3A     -1.355017
       4A     -0.919781     5A     -0.688349     6A     -0.619354
       7A     -0.592469     8A     -0.507488     9A     -0.453461

  @RHF Final Energy:  -115.08899141192795

   => Energetics <=

    Nuclear Repulsion Energy =             40.0595437354485497
    One-Electron Energy =                -236.4330581439567140
    Two-Electron Energy =                  81.2941176323493977
    PCM Polarization Energy =              -0.0095946357691831
    Total Energy =                       -115.0889914119279496

  Dipole Moment: [D]
     X:    -1.4679      Y:    -1.8559      Z:    -0.6248     Total:     2.4474

  Basis Set: (6-311++G(2D,2P) AUX)
    Blend: AUG-CC-PVTZ-RI
	 Reference Energy          =    -115.0889914119279496 [Eh]
	 Singles Energy            =      -0.0000000000000000 [Eh]
	 Same-Spin Energy          =      -0.0930720949844825 [Eh]
	 Opposite-Spin Energy      =      -0.2991643771488670 [Eh]
	 Correlation Energy        =      -0.3922364721333494 [Eh]
	 Total Energy              =    -115.4812278840612976 [Eh]

	 ================> DF-SCS-MP2 Energies <==================
	-----------------------------------------------------------
	 SCS Same-Spin Scale       =       0.3333333333333333 [-]
	 SCS Opposite-Spin Scale   =       1.2000000000000000 [-]
	 SCS Same-Spin Energy      =      -0.0310240316614942 [Eh]
	 SCS Opposite-Spin Energy  =      -0.3589972525786403 [Eh]
	 SCS Correlation Energy    =      -0.3900212842401345 [Eh]
	 SCS Total Energy          =    -115.4790126961680841 [Eh]
	-----------------------------------------------------------

*** Psi4 exiting successfully. Buy a developer a beer!
