                               Psi4 1.3.2 release

  ==> Input File <==

--------------------------------------------------------------------------
molecule {
0 1
 O    0.698902    0.096891   -0.056232
 C   -0.736065    0.050228   -0.045207
 H   -1.054650   -0.942376    0.284355
 H   -1.098347    0.279043   -1.051090
 H   -1.090992    0.806897    0.660762
 H    0.990549   -0.784119   -0.356050
}
set {
 basis 6-311++G(2d,2p)
 e_convergence 10
 d_convergence 10
 scf_type pk
 pcm true
  pcm_scf_type total
}
pcm = {
 Units = Angstrom
 Medium {
 SolverType = IEFPCM
 Solvent = Water
 }
 Cavity {
 RadiiSet = UFF
 Type = GePol
 Scaling = False
 Area = 0.3
 Mode = Implicit
 }
}
memory 700MB
set_num_threads(1)
psi4_io.set_default_path("/scratch/bdw2292")
set freeze_core True
E, wfn = energy('mp2/6-311++G(2d,2p)',return_wfn=True)
clean()
--------------------------------------------------------------------------

    Molecular point group: c1

    Geometry (in Angstrom), charge = 0, multiplicity = 1:

       Center              X                  Y                   Z               Mass
    ------------   -----------------  -----------------  -----------------  -----------------
         O            0.696559401057     0.049837924239     0.003330093077    15.994914619570
         C           -0.738407598943     0.003174924239     0.014355093077    12.000000000000
         H           -1.056992598943    -0.989429075761     0.343917093077     1.007825032230
         H           -1.100689598943     0.231989924239    -0.991527906923     1.007825032230
         H           -1.093334598943     0.759843924239     0.720324093077     1.007825032230
         H            0.988206401057    -0.831172075761    -0.296487906923     1.007825032230

  Charge       = 0
  Multiplicity = 1
  Basis Set: 6-311++G(2D,2P)
    Blend: 6-311++G(2D,2P)

    Orbital Energies [Eh]
    ---------------------

    Doubly Occupied:

       1A    -20.563088     2A    -11.268726     3A     -1.355550
       4A     -0.919757     5A     -0.686741     6A     -0.621784
       7A     -0.592346     8A     -0.506840     9A     -0.454553

  @RHF Final Energy:  -115.09000009242861

   => Energetics <=

    Nuclear Repulsion Energy =             40.0725660189974917
    One-Electron Energy =                -236.4564569880450335
    Two-Electron Energy =                  81.3034490008823667
    PCM Polarization Energy =              -0.0095581242634320
    Total Energy =                       -115.0900000924286104

  Dipole Moment: [D]
     X:    -1.4784      Y:    -1.8298      Z:    -0.5496     Total:     2.4157

  Basis Set: (6-311++G(2D,2P) AUX)
    Blend: AUG-CC-PVTZ-RI
	 Reference Energy          =    -115.0900000924286104 [Eh]
	 Singles Energy            =      -0.0000000000000000 [Eh]
	 Same-Spin Energy          =      -0.0930366697114262 [Eh]
	 Opposite-Spin Energy      =      -0.2991109906045421 [Eh]
	 Correlation Energy        =      -0.3921476603159684 [Eh]
	 Total Energy              =    -115.4821477527445808 [Eh]

	 ================> DF-SCS-MP2 Energies <==================
	-----------------------------------------------------------
	 SCS Same-Spin Scale       =       0.3333333333333333 [-]
	 SCS Opposite-Spin Scale   =       1.2000000000000000 [-]
	 SCS Same-Spin Energy      =      -0.0310122232371421 [Eh]
	 SCS Opposite-Spin Energy  =      -0.3589331887254505 [Eh]
	 SCS Correlation Energy    =      -0.3899454119625926 [Eh]
	 SCS Total Energy          =    -115.4799455043911962 [Eh]
	-----------------------------------------------------------

*** Psi4 exiting successfully. Buy a developer a beer!
