                               Psi4 1.3.2 release

  ==> Input File <==

--------------------------------------------------------------------------
molecule {
0 1
 O    0.689656    0.039448    0.006363
 C   -0.746420    0.016095    0.010808
 H   -1.091775   -0.807043   -0.620406
 H   -1.110158    0.981947   -0.350415
 H   -1.075392   -0.145488    1.041519
 H    0.971202   -0.844553   -0.293997
}
set optking {
  frozen_dihedral = ("
  ")
}
memory 700MB
set_num_threads(1)
psi4_io.set_default_path("/scratch/bdw2292")
optimize('hf/6-311G*')
clean()
--------------------------------------------------------------------------

    Molecular point group: c1
  Charge       = 0
  Multiplicity = 1
  Basis Set: 6-311G*
    Blend: 6-311G*
  Basis Set: (6-311G* AUX)
    Blend: CC-PVTZ-JKFIT
  @DF-RHF Final Energy:  -115.05840603773227
    Total Energy =                       -115.0584060377322686
    Molecular point group: c1
  Basis Set: 6-311G*
    Blend: 6-311G*
  Basis Set: (6-311G* AUX)
    Blend: CC-PVTZ-JKFIT
  Basis Set: 6-311G*
    Blend: 6-311G*
  Basis Set: (6-311G* AUX)
    Blend: CC-PVTZ-JKFIT
  @DF-RHF Final Energy:  -115.06220637809793
    Total Energy =                       -115.0622063780979261
  Basis Set: 6-311G*
    Blend: 6-311G*
  Basis Set: (6-311G* AUX)
    Blend: CC-PVTZ-JKFIT
  Basis Set: 6-311G*
    Blend: 6-311G*
  @DF-RHF Final Energy:  -115.05964258482311
    Total Energy =                       -115.0596425848231092
  @DF-RHF Final Energy:  -115.06357971613446
    Total Energy =                       -115.0635797161344556
  @DF-RHF Final Energy:  -115.06370062831915
    Total Energy =                       -115.0637006283191539
  @DF-RHF Final Energy:  -115.06367761351882
    Total Energy =                       -115.0636776135188200
  @DF-RHF Final Energy:  -115.06371018532765
    Total Energy =                       -115.0637101853276505
  Basis Set: (6-311G* AUX)
    Blend: CC-PVTZ-JKFIT
  Basis Set: 6-311G*
    Blend: 6-311G*
  Basis Set: (6-311G* AUX)
    Blend: CC-PVTZ-JKFIT
  @DF-RHF Final Energy:  -115.06371439992942
    Total Energy =                       -115.0637143999294238
  Basis Set: 6-311G*
    Blend: 6-311G*
  Basis Set: (6-311G* AUX)
    Blend: CC-PVTZ-JKFIT
  Charge       = 0
  Multiplicity = 1
  Basis Set: 6-311G*
    Blend: 6-311G*
  Basis Set: (6-311G* AUX)
    Blend: CC-PVTZ-JKFIT

    Orbital Energies [Eh]
    ---------------------

    Doubly Occupied:

       1A    -20.541666     2A    -11.264810     3A     -1.364439
       4A     -0.928352     5A     -0.696989     6A     -0.622283
       7A     -0.597324     8A     -0.498087     9A     -0.444928

  @DF-RHF Final Energy:  -115.06371471589561

   => Energetics <=

    Nuclear Repulsion Energy =             40.8516938032780246
    One-Electron Energy =                -237.9130605238665908
    Two-Electron Energy =                  81.9976520046929664
    Total Energy =                       -115.0637147158956139

  Dipole Moment: [D]
     X:    -1.0006      Y:    -1.5409      Z:     0.5672     Total:     1.9228

    Molecular point group: c1
  Basis Set: 6-311G*
    Blend: 6-311G*
  Basis Set: (6-311G* AUX)
    Blend: CC-PVTZ-JKFIT

  -Total Gradient:
     Atom            X                  Y                   Z
    ------   -----------------  -----------------  -----------------
       1       -0.000012098211     0.000046855000    -0.000021029931
       2       -0.000005534235    -0.000001450233     0.000012435004
       3       -0.000006789990    -0.000014094150    -0.000014792766
       4        0.000004452905     0.000009977266     0.000001959092
       5       -0.000014515265     0.000006058840     0.000009104820
       6        0.000034484795    -0.000047346723     0.000012323781

  **** Optimization is complete! (in 9 steps) ****
    Final optimized geometry and variables:
    Molecular point group: c1

    Geometry (in Angstrom), charge = 0, multiplicity = 1:

    O            0.679025999809     0.030888310662    -0.053602224254
    C           -0.715768915700     0.017966343763     0.040007753701
    H           -1.160885305848    -0.721499030891    -0.621290891062
    H           -1.065600082602     0.995945533465    -0.256994297475
    H           -1.053512209854    -0.173740965085     1.055588229539
    H            1.025900081014    -0.804847619937     0.197037686686

*** Psi4 exiting successfully. Buy a developer a beer!
