                               Psi4 1.3.2 release

  ==> Input File <==

--------------------------------------------------------------------------
molecule {
0 1
 O    0.696068    0.168051   -0.151842
 C   -0.735008    0.109748   -0.042896
 H   -1.065276   -0.918400   -0.213329
 H   -1.166507    0.798567   -0.774257
 H   -1.006582    0.421445    0.969995
 H    0.975551   -0.702232   -0.491455
}
set {
 basis 6-311++G(2d,2p)
 e_convergence 10
 d_convergence 10
 scf_type pk
 pcm true
  pcm_scf_type total
}
pcm = {
 Units = Angstrom
 Medium {
 SolverType = IEFPCM
 Solvent = Water
 }
 Cavity {
 RadiiSet = UFF
 Type = GePol
 Scaling = False
 Area = 0.3
 Mode = Implicit
 }
}
memory 700MB
set_num_threads(1)
psi4_io.set_default_path("/scratch/bdw2292")
set freeze_core True
E, wfn = energy('mp2/6-311++G(2d,2p)',return_wfn=True)
clean()
--------------------------------------------------------------------------

    Molecular point group: c1

    Geometry (in Angstrom), charge = 0, multiplicity = 1:

       Center              X                  Y                   Z               Mass
    ------------   -----------------  -----------------  -----------------  -----------------
         O            0.695039728717     0.055606161901    -0.043915379443    15.994914619570
         C           -0.736036271283    -0.002696838099     0.065030620557    12.000000000000
         H           -1.066304271283    -1.030844838099    -0.105402379443     1.007825032230
         H           -1.167535271283     0.686122161901    -0.666330379443     1.007825032230
         H           -1.007610271283     0.309000161901     1.077921620557     1.007825032230
         H            0.974522728717    -0.814676838099    -0.383528379443     1.007825032230

  Charge       = 0
  Multiplicity = 1
  Basis Set: 6-311++G(2D,2P)
    Blend: 6-311++G(2D,2P)

    Orbital Energies [Eh]
    ---------------------

    Doubly Occupied:

       1A    -20.562561     2A    -11.268699     3A     -1.355049
       4A     -0.919779     5A     -0.688232     6A     -0.619598
       7A     -0.592402     8A     -0.507341     9A     -0.453604

  @RHF Final Energy:  -115.08905235063156

   => Energetics <=

    Nuclear Repulsion Energy =             40.0603603093929621
    One-Electron Energy =                -236.4345841173409610
    Two-Electron Energy =                  81.2947635534914639
    PCM Polarization Energy =              -0.0095920961750198
    Total Energy =                       -115.0890523506315617

  Dipole Moment: [D]
     X:    -1.4937      Y:    -1.8659      Z:    -0.5179     Total:     2.4456

  Basis Set: (6-311++G(2D,2P) AUX)
    Blend: AUG-CC-PVTZ-RI
	 Reference Energy          =    -115.0890523506315617 [Eh]
	 Singles Energy            =      -0.0000000000000000 [Eh]
	 Same-Spin Energy          =      -0.0930708269635049 [Eh]
	 Opposite-Spin Energy      =      -0.2991622905360471 [Eh]
	 Correlation Energy        =      -0.3922331174995521 [Eh]
	 Total Energy              =    -115.4812854681311194 [Eh]

	 ================> DF-SCS-MP2 Energies <==================
	-----------------------------------------------------------
	 SCS Same-Spin Scale       =       0.3333333333333333 [-]
	 SCS Opposite-Spin Scale   =       1.2000000000000000 [-]
	 SCS Same-Spin Energy      =      -0.0310236089878350 [Eh]
	 SCS Opposite-Spin Energy  =      -0.3589947486432566 [Eh]
	 SCS Correlation Energy    =      -0.3900183576310916 [Eh]
	 SCS Total Energy          =    -115.4790707082626540 [Eh]
	-----------------------------------------------------------

*** Psi4 exiting successfully. Buy a developer a beer!
