                               Psi4 1.3.2 release

  ==> Input File <==

--------------------------------------------------------------------------
molecule {
0 1
 O    0.700772    0.062230   -0.044508
 C   -0.734425    0.073195   -0.007687
 H   -1.107004    0.206539   -1.026909
 H   -1.058686    0.880938    0.654214
 H   -1.072171   -0.889085    0.388001
 H    0.949732   -0.809152   -0.404982
}
set {
 basis 6-311++G(2d,2p)
 e_convergence 10
 d_convergence 10
 scf_type pk
 pcm true
  pcm_scf_type total
}
pcm = {
 Units = Angstrom
 Medium {
 SolverType = IEFPCM
 Solvent = Water
 }
 Cavity {
 RadiiSet = UFF
 Type = GePol
 Scaling = False
 Area = 0.3
 Mode = Implicit
 }
}
memory 700MB
set_num_threads(1)
psi4_io.set_default_path("/scratch/bdw2292")
set freeze_core True
E, wfn = energy('mp2/6-311++G(2d,2p)',return_wfn=True)
clean()
--------------------------------------------------------------------------

    Molecular point group: c1

    Geometry (in Angstrom), charge = 0, multiplicity = 1:

       Center              X                  Y                   Z               Mass
    ------------   -----------------  -----------------  -----------------  -----------------
         O            0.697972586291     0.022944548067    -0.007136399998    15.994914619570
         C           -0.737224413709     0.033909548067     0.029684600002    12.000000000000
         H           -1.109803413709     0.167253548067    -0.989537399998     1.007825032230
         H           -1.061485413709     0.841652548067     0.691585600002     1.007825032230
         H           -1.074970413709    -0.928370451933     0.425372600002     1.007825032230
         H            0.946932586291    -0.848437451933    -0.367610399998     1.007825032230

  Charge       = 0
  Multiplicity = 1
  Basis Set: 6-311++G(2D,2P)
    Blend: 6-311++G(2D,2P)

    Orbital Energies [Eh]
    ---------------------

    Doubly Occupied:

       1A    -20.563075     2A    -11.268823     3A     -1.355598
       4A     -0.919625     5A     -0.687035     6A     -0.621164
       7A     -0.592805     8A     -0.507826     9A     -0.453757

  @RHF Final Energy:  -115.09006573655029

   => Energetics <=

    Nuclear Repulsion Energy =             40.0757904914896770
    One-Electron Energy =                -236.4617138581656945
    Two-Electron Energy =                  81.3054782314984976
    PCM Polarization Energy =              -0.0096206013727634
    Total Energy =                       -115.0900657365502866

  Dipole Moment: [D]
     X:    -1.5664      Y:    -1.7271      Z:    -0.6369     Total:     2.4170

  Basis Set: (6-311++G(2D,2P) AUX)
    Blend: AUG-CC-PVTZ-RI
	 Reference Energy          =    -115.0900657365502866 [Eh]
	 Singles Energy            =      -0.0000000000000000 [Eh]
	 Same-Spin Energy          =      -0.0930193447531750 [Eh]
	 Opposite-Spin Energy      =      -0.2990850218502852 [Eh]
	 Correlation Energy        =      -0.3921043666034603 [Eh]
	 Total Energy              =    -115.4821701031537486 [Eh]

	 ================> DF-SCS-MP2 Energies <==================
	-----------------------------------------------------------
	 SCS Same-Spin Scale       =       0.3333333333333333 [-]
	 SCS Opposite-Spin Scale   =       1.2000000000000000 [-]
	 SCS Same-Spin Energy      =      -0.0310064482510583 [Eh]
	 SCS Opposite-Spin Energy  =      -0.3589020262203423 [Eh]
	 SCS Correlation Energy    =      -0.3899084744714006 [Eh]
	 SCS Total Energy          =    -115.4799742110216840 [Eh]
	-----------------------------------------------------------

*** Psi4 exiting successfully. Buy a developer a beer!
