                               Psi4 1.3.2 release

  ==> Input File <==

--------------------------------------------------------------------------
molecule {
0 1
 O    0.698561    0.045532    0.015638
 C   -0.736761    0.031930    0.009941
 H   -1.081086   -0.741225    0.702101
 H   -1.079853   -0.154751   -1.011273
 H   -1.083293    1.013798    0.345775
 H    0.971182   -0.840526   -0.287455
}
set {
 basis 6-311++G(2d,2p)
 e_convergence 10
 d_convergence 10
 scf_type pk
 pcm true
  pcm_scf_type total
}
pcm = {
 Units = Angstrom
 Medium {
 SolverType = IEFPCM
 Solvent = Water
 }
 Cavity {
 RadiiSet = UFF
 Type = GePol
 Scaling = False
 Area = 0.3
 Mode = Implicit
 }
}
memory 700MB
set_num_threads(1)
psi4_io.set_default_path("/scratch/bdw2292")
set freeze_core True
E, wfn = energy('mp2/6-311++G(2d,2p)',return_wfn=True)
clean()
--------------------------------------------------------------------------

    Molecular point group: c1

    Geometry (in Angstrom), charge = 0, multiplicity = 1:

       Center              X                  Y                   Z               Mass
    ------------   -----------------  -----------------  -----------------  -----------------
         O            0.697266595951     0.033570509285     0.011997059266    15.994914619570
         C           -0.738055404049     0.019968509285     0.006300059266    12.000000000000
         H           -1.082380404049    -0.753186490715     0.698460059266     1.007825032230
         H           -1.081147404049    -0.166712490715    -1.014913940734     1.007825032230
         H           -1.084587404049     1.001836509285     0.342134059266     1.007825032230
         H            0.969887595951    -0.852487490715    -0.291095940734     1.007825032230

  Charge       = 0
  Multiplicity = 1
  Basis Set: 6-311++G(2D,2P)
    Blend: 6-311++G(2D,2P)

    Orbital Energies [Eh]
    ---------------------

    Doubly Occupied:

       1A    -20.563282     2A    -11.268674     3A     -1.355734
       4A     -0.919651     5A     -0.685840     6A     -0.622731
       7A     -0.592324     8A     -0.506758     9A     -0.454787

  @RHF Final Energy:  -115.09053175274165

   => Energetics <=

    Nuclear Repulsion Energy =             40.0798021920160394
    One-Electron Energy =                -236.4689582375212353
    Two-Electron Energy =                  81.3081987413732747
    PCM Polarization Energy =              -0.0095744486097334
    Total Energy =                       -115.0905317527416543

  Dipole Moment: [D]
     X:    -1.5181      Y:    -1.7594      Z:    -0.6033     Total:     2.4009

  Basis Set: (6-311++G(2D,2P) AUX)
    Blend: AUG-CC-PVTZ-RI
	 Reference Energy          =    -115.0905317527416543 [Eh]
	 Singles Energy            =      -0.0000000000000000 [Eh]
	 Same-Spin Energy          =      -0.0930141386364654 [Eh]
	 Opposite-Spin Energy      =      -0.2990779287251285 [Eh]
	 Correlation Energy        =      -0.3920920673615939 [Eh]
	 Total Energy              =    -115.4826238201032425 [Eh]

	 ================> DF-SCS-MP2 Energies <==================
	-----------------------------------------------------------
	 SCS Same-Spin Scale       =       0.3333333333333333 [-]
	 SCS Opposite-Spin Scale   =       1.2000000000000000 [-]
	 SCS Same-Spin Energy      =      -0.0310047128788218 [Eh]
	 SCS Opposite-Spin Energy  =      -0.3588935144701541 [Eh]
	 SCS Correlation Energy    =      -0.3898982273489759 [Eh]
	 SCS Total Energy          =    -115.4804299800906335 [Eh]
	-----------------------------------------------------------

*** Psi4 exiting successfully. Buy a developer a beer!
