                               Psi4 1.3.2 release

  ==> Input File <==

--------------------------------------------------------------------------
molecule {
0 1
 O    0.689809    0.036290    0.012987
 C   -0.746245    0.019029    0.005430
 H   -1.104932    0.627581    0.840104
 H   -1.090257   -1.015837    0.082873
 H   -1.081332    0.450144   -0.942478
 H    0.969557   -0.848722   -0.286159
}
set optking {
  frozen_dihedral = ("
  ")
}
memory 700MB
set_num_threads(1)
psi4_io.set_default_path("/scratch/bdw2292")
optimize('hf/6-311G*')
clean()
--------------------------------------------------------------------------

    Molecular point group: c1
  Charge       = 0
  Multiplicity = 1
  Basis Set: 6-311G*
    Blend: 6-311G*
  Basis Set: (6-311G* AUX)
    Blend: CC-PVTZ-JKFIT
  @DF-RHF Final Energy:  -115.05859488969438
    Total Energy =                       -115.0585948896943762
    Molecular point group: c1
  Basis Set: 6-311G*
    Blend: 6-311G*
  Basis Set: (6-311G* AUX)
    Blend: CC-PVTZ-JKFIT
  Basis Set: 6-311G*
    Blend: 6-311G*
  Basis Set: (6-311G* AUX)
    Blend: CC-PVTZ-JKFIT
  @DF-RHF Final Energy:  -115.06246750009740
    Total Energy =                       -115.0624675000973980
  Basis Set: 6-311G*
    Blend: 6-311G*
  Basis Set: (6-311G* AUX)
    Blend: CC-PVTZ-JKFIT
  Basis Set: 6-311G*
    Blend: 6-311G*
  @DF-RHF Final Energy:  -115.06340338323213
    Total Energy =                       -115.0634033832321279
  @DF-RHF Final Energy:  -115.06351894997724
    Total Energy =                       -115.0635189499772366
  @DF-RHF Final Energy:  -115.06368471192590
    Total Energy =                       -115.0636847119259016
  @DF-RHF Final Energy:  -115.06371174140398
    Total Energy =                       -115.0637117414039778
  Basis Set: (6-311G* AUX)
    Blend: CC-PVTZ-JKFIT
  Basis Set: 6-311G*
    Blend: 6-311G*
  Basis Set: (6-311G* AUX)
    Blend: CC-PVTZ-JKFIT
  @DF-RHF Final Energy:  -115.06371460265257
    Total Energy =                       -115.0637146026525670
  Basis Set: 6-311G*
    Blend: 6-311G*
  Basis Set: (6-311G* AUX)
    Blend: CC-PVTZ-JKFIT
  Charge       = 0
  Multiplicity = 1
  Basis Set: 6-311G*
    Blend: 6-311G*
  Basis Set: (6-311G* AUX)
    Blend: CC-PVTZ-JKFIT

    Orbital Energies [Eh]
    ---------------------

    Doubly Occupied:

       1A    -20.541662     2A    -11.264803     3A     -1.364451
       4A     -0.928363     5A     -0.696997     6A     -0.622287
       7A     -0.597332     8A     -0.498102     9A     -0.444930

  @DF-RHF Final Energy:  -115.06371472079176

   => Energetics <=

    Nuclear Repulsion Energy =             40.8521191425574415
    One-Electron Energy =                -237.9138140934627756
    Two-Electron Energy =                  81.9979802301135834
    Total Energy =                       -115.0637147207917650

  Dipole Moment: [D]
     X:    -1.0578      Y:    -0.9367      Z:    -1.3045     Total:     1.9230

    Molecular point group: c1
  Basis Set: 6-311G*
    Blend: 6-311G*
  Basis Set: (6-311G* AUX)
    Blend: CC-PVTZ-JKFIT

  -Total Gradient:
     Atom            X                  Y                   Z
    ------   -----------------  -----------------  -----------------
       1        0.000024503353    -0.000017060272     0.000002899324
       2       -0.000019093094     0.000017588905    -0.000002464887
       3       -0.000005552143    -0.000005344097    -0.000002140710
       4        0.000009097549     0.000005701213     0.000000300116
       5       -0.000010706467    -0.000003156790     0.000000047886
       6        0.000001750801     0.000002271041     0.000001358271

  **** Optimization is complete! (in 8 steps) ****
    Final optimized geometry and variables:
    Molecular point group: c1

    Geometry (in Angstrom), charge = 0, multiplicity = 1:

    O            0.680288925733    -0.018277871821     0.042306967741
    C           -0.715232031218     0.051838358912    -0.002623433495
    H           -1.029253099565     0.701862783666     0.801029980500
    H           -1.176143292285    -0.922028110309     0.143358236027
    H           -1.071484837258     0.469365045951    -0.941212805452
    H            0.996347569381    -0.576347088342    -0.643380917235

*** Psi4 exiting successfully. Buy a developer a beer!
