                               Psi4 1.3.2 release

  ==> Input File <==

--------------------------------------------------------------------------
molecule {
0 1
 O    0.689190    0.040422    0.005107
 C   -0.746204    0.016335    0.011492
 H   -1.094230   -0.416856   -0.930121
 H   -1.110234    1.038436    0.147492
 H   -1.068160   -0.608914    0.849370
 H    0.966945   -0.845192   -0.294548
}
set optking {
  frozen_dihedral = ("
  ")
}
memory 700MB
set_num_threads(1)
psi4_io.set_default_path("/scratch/bdw2292")
optimize('hf/6-311G*')
clean()
--------------------------------------------------------------------------

    Molecular point group: c1
  Charge       = 0
  Multiplicity = 1
  Basis Set: 6-311G*
    Blend: 6-311G*
  Basis Set: (6-311G* AUX)
    Blend: CC-PVTZ-JKFIT
  @DF-RHF Final Energy:  -115.05973541387576
    Total Energy =                       -115.0597354138757566
    Molecular point group: c1
  Basis Set: 6-311G*
    Blend: 6-311G*
  Basis Set: (6-311G* AUX)
    Blend: CC-PVTZ-JKFIT
  Basis Set: 6-311G*
    Blend: 6-311G*
  Basis Set: (6-311G* AUX)
    Blend: CC-PVTZ-JKFIT
  @DF-RHF Final Energy:  -115.06340234786441
    Total Energy =                       -115.0634023478644110
  Basis Set: 6-311G*
    Blend: 6-311G*
  Basis Set: (6-311G* AUX)
    Blend: CC-PVTZ-JKFIT
  Basis Set: 6-311G*
    Blend: 6-311G*
  @DF-RHF Final Energy:  -115.06346341577016
    Total Energy =                       -115.0634634157701583
  @DF-RHF Final Energy:  -115.06344798100133
    Total Energy =                       -115.0634479810013318
  @DF-RHF Final Energy:  -115.06370190202163
    Total Energy =                       -115.0637019020216343
  Basis Set: (6-311G* AUX)
    Blend: CC-PVTZ-JKFIT
  Basis Set: 6-311G*
    Blend: 6-311G*
  Basis Set: (6-311G* AUX)
    Blend: CC-PVTZ-JKFIT
  @DF-RHF Final Energy:  -115.06371441548504
    Total Energy =                       -115.0637144154850375
  Basis Set: 6-311G*
    Blend: 6-311G*
  Basis Set: (6-311G* AUX)
    Blend: CC-PVTZ-JKFIT
  Charge       = 0
  Multiplicity = 1
  Basis Set: 6-311G*
    Blend: 6-311G*
  Basis Set: (6-311G* AUX)
    Blend: CC-PVTZ-JKFIT

    Orbital Energies [Eh]
    ---------------------

    Doubly Occupied:

       1A    -20.541658     2A    -11.264805     3A     -1.364470
       4A     -0.928374     5A     -0.697013     6A     -0.622283
       7A     -0.597352     8A     -0.498098     9A     -0.444929

  @DF-RHF Final Energy:  -115.06371470449514

   => Energetics <=

    Nuclear Repulsion Energy =             40.8524714896486998
    One-Electron Energy =                -237.9144102423260847
    Two-Electron Energy =                  81.9982240481822373
    Total Energy =                       -115.0637147044951405

  Dipole Moment: [D]
     X:    -1.0215      Y:    -1.6172      Z:    -0.1965     Total:     1.9229

    Molecular point group: c1
  Basis Set: 6-311G*
    Blend: 6-311G*
  Basis Set: (6-311G* AUX)
    Blend: CC-PVTZ-JKFIT

  -Total Gradient:
     Atom            X                  Y                   Z
    ------   -----------------  -----------------  -----------------
       1        0.000053113138    -0.000106089375    -0.000020695548
       2        0.000008691984     0.000034905837     0.000001719204
       3       -0.000005712382     0.000001703560     0.000010707182
       4       -0.000034815137    -0.000008334731     0.000001650022
       5       -0.000003986224     0.000001665215    -0.000009532678
       6       -0.000017291380     0.000076149495     0.000016151818

  **** Optimization is complete! (in 7 steps) ****
    Final optimized geometry and variables:
    Molecular point group: c1

    Geometry (in Angstrom), charge = 0, multiplicity = 1:

    O            0.680439750460     0.040651852360    -0.016356772065
    C           -0.716607936394     0.009784580261     0.024697013234
    H           -1.142845223486    -0.355120771896    -0.906614599913
    H           -1.055106453071     1.023749065546     0.180619346472
    H           -1.085927871606    -0.604982505975     0.841913481077
    H            1.017334857772    -0.825323505748    -0.150387490727

*** Psi4 exiting successfully. Buy a developer a beer!
