                               Psi4 1.3.2 release

  ==> Input File <==

--------------------------------------------------------------------------
molecule {
0 1
 O    0.689469    0.036449    0.014311
 C   -0.746199    0.019604    0.003739
 H   -1.105225    1.051504   -0.040832
 H   -1.093881   -0.494957    0.903603
 H   -1.074559   -0.525977   -0.885718
 H    0.967408   -0.849927   -0.282807
}
set optking {
  frozen_dihedral = ("
  ")
}
memory 700MB
set_num_threads(1)
psi4_io.set_default_path("/scratch/bdw2292")
optimize('hf/6-311G*')
clean()
--------------------------------------------------------------------------

    Molecular point group: c1
  Charge       = 0
  Multiplicity = 1
  Basis Set: 6-311G*
    Blend: 6-311G*
  Basis Set: (6-311G* AUX)
    Blend: CC-PVTZ-JKFIT
  @DF-RHF Final Energy:  -115.05942954450346
    Total Energy =                       -115.0594295445034589
    Molecular point group: c1
  Basis Set: 6-311G*
    Blend: 6-311G*
  Basis Set: (6-311G* AUX)
    Blend: CC-PVTZ-JKFIT
  Basis Set: 6-311G*
    Blend: 6-311G*
  Basis Set: (6-311G* AUX)
    Blend: CC-PVTZ-JKFIT
  @DF-RHF Final Energy:  -115.06316757561184
    Total Energy =                       -115.0631675756118426
  Basis Set: 6-311G*
    Blend: 6-311G*
  Basis Set: (6-311G* AUX)
    Blend: CC-PVTZ-JKFIT
  Basis Set: 6-311G*
    Blend: 6-311G*
  @DF-RHF Final Energy:  -115.06360050882930
    Total Energy =                       -115.0636005088292961
  @DF-RHF Final Energy:  -115.06369100216533
    Total Energy =                       -115.0636910021653279
  @DF-RHF Final Energy:  -115.06368980562198
    Total Energy =                       -115.0636898056219763
  Basis Set: (6-311G* AUX)
    Blend: CC-PVTZ-JKFIT
  Basis Set: 6-311G*
    Blend: 6-311G*
  Basis Set: (6-311G* AUX)
    Blend: CC-PVTZ-JKFIT
  @DF-RHF Final Energy:  -115.06371409357028
    Total Energy =                       -115.0637140935702831
  Basis Set: 6-311G*
    Blend: 6-311G*
  Basis Set: (6-311G* AUX)
    Blend: CC-PVTZ-JKFIT
  Charge       = 0
  Multiplicity = 1
  Basis Set: 6-311G*
    Blend: 6-311G*
  Basis Set: (6-311G* AUX)
    Blend: CC-PVTZ-JKFIT

    Orbital Energies [Eh]
    ---------------------

    Doubly Occupied:

       1A    -20.541665     2A    -11.264809     3A     -1.364420
       4A     -0.928369     5A     -0.696976     6A     -0.622273
       7A     -0.597320     8A     -0.498118     9A     -0.444940

  @DF-RHF Final Energy:  -115.06371462343486

   => Energetics <=

    Nuclear Repulsion Energy =             40.8506814366296140
    One-Electron Energy =                -237.9110122607067979
    Two-Electron Energy =                  81.9966162006423360
    Total Energy =                       -115.0637146234348620

  Dipole Moment: [D]
     X:    -1.0733      Y:    -1.5875      Z:     0.1643     Total:     1.9233

    Molecular point group: c1
  Basis Set: 6-311G*
    Blend: 6-311G*
  Basis Set: (6-311G* AUX)
    Blend: CC-PVTZ-JKFIT

  -Total Gradient:
     Atom            X                  Y                   Z
    ------   -----------------  -----------------  -----------------
       1        0.000105814875    -0.000025446369    -0.000041092122
       2       -0.000070196430     0.000028133252     0.000024225299
       3       -0.000026290511    -0.000013149032    -0.000000381396
       4       -0.000007473428    -0.000010183938    -0.000015933564
       5        0.000000962225     0.000014816076     0.000009005957
       6       -0.000002816730     0.000005830010     0.000024175826

  **** Optimization is complete! (in 7 steps) ****
    Final optimized geometry and variables:
    Molecular point group: c1

    Geometry (in Angstrom), charge = 0, multiplicity = 1:

    O            0.680683673128     0.013369118417    -0.038434297757
    C           -0.715151663433     0.038903312038     0.036886178626
    H           -1.019671681370     1.074283188901    -0.010458720577
    H           -1.079892799888    -0.384052726569     0.969745993532
    H           -1.176778538026    -0.493000683873    -0.791440059316
    H            0.988587506479    -0.872622461016     0.002935573124

*** Psi4 exiting successfully. Buy a developer a beer!
