                               Psi4 1.3.2 release

  ==> Input File <==

--------------------------------------------------------------------------
molecule {
0 1
 O    0.689547    0.041153    0.002129
 C   -0.746677    0.015093    0.011857
 H   -1.112924    0.900998   -0.514154
 H   -1.085454   -0.012348    1.051085
 H   -1.080294   -0.887113   -0.508860
 H    0.973003   -0.843788   -0.293531
}
set optking {
  frozen_dihedral = ("
  ")
}
memory 700MB
set_num_threads(1)
psi4_io.set_default_path("/scratch/bdw2292")
optimize('hf/6-311G*')
clean()
--------------------------------------------------------------------------

    Molecular point group: c1
  Charge       = 0
  Multiplicity = 1
  Basis Set: 6-311G*
    Blend: 6-311G*
  Basis Set: (6-311G* AUX)
    Blend: CC-PVTZ-JKFIT
  @DF-RHF Final Energy:  -115.05807107925149
    Total Energy =                       -115.0580710792514907
    Molecular point group: c1
  Basis Set: 6-311G*
    Blend: 6-311G*
  Basis Set: (6-311G* AUX)
    Blend: CC-PVTZ-JKFIT
  Basis Set: 6-311G*
    Blend: 6-311G*
  Basis Set: (6-311G* AUX)
    Blend: CC-PVTZ-JKFIT
  @DF-RHF Final Energy:  -115.06165377228197
    Total Energy =                       -115.0616537722819714
  Basis Set: 6-311G*
    Blend: 6-311G*
  Basis Set: (6-311G* AUX)
    Blend: CC-PVTZ-JKFIT
  Basis Set: 6-311G*
    Blend: 6-311G*
  @DF-RHF Final Energy:  -115.06263271885770
    Total Energy =                       -115.0626327188576994
  @DF-RHF Final Energy:  -115.06333216803708
    Total Energy =                       -115.0633321680370784
  @DF-RHF Final Energy:  -115.06363659369350
    Total Energy =                       -115.0636365936935022
  @DF-RHF Final Energy:  -115.06332643785365
    Total Energy =                       -115.0633264378536467
  @DF-RHF Final Energy:  -115.06371169513922
    Total Energy =                       -115.0637116951392187
  Basis Set: (6-311G* AUX)
    Blend: CC-PVTZ-JKFIT
  Basis Set: 6-311G*
    Blend: 6-311G*
  Basis Set: (6-311G* AUX)
    Blend: CC-PVTZ-JKFIT
  @DF-RHF Final Energy:  -115.06371439817627
    Total Energy =                       -115.0637143981762733
  Basis Set: 6-311G*
    Blend: 6-311G*
  Basis Set: (6-311G* AUX)
    Blend: CC-PVTZ-JKFIT
  Charge       = 0
  Multiplicity = 1
  Basis Set: 6-311G*
    Blend: 6-311G*
  Basis Set: (6-311G* AUX)
    Blend: CC-PVTZ-JKFIT

    Orbital Energies [Eh]
    ---------------------

    Doubly Occupied:

       1A    -20.541669     2A    -11.264785     3A     -1.364509
       4A     -0.928366     5A     -0.697038     6A     -0.622308
       7A     -0.597328     8A     -0.498121     9A     -0.444936

  @DF-RHF Final Energy:  -115.06371469079826

   => Energetics <=

    Nuclear Repulsion Energy =             40.8541944671104105
    One-Electron Energy =                -237.9176992930264873
    Two-Electron Energy =                  81.9997901351178200
    Total Energy =                       -115.0637146907982640

  Dipole Moment: [D]
     X:    -0.9782      Y:    -1.4441      Z:     0.8096     Total:     1.9230

    Molecular point group: c1
  Basis Set: 6-311G*
    Blend: 6-311G*
  Basis Set: (6-311G* AUX)
    Blend: CC-PVTZ-JKFIT

  -Total Gradient:
     Atom            X                  Y                   Z
    ------   -----------------  -----------------  -----------------
       1        0.000002140068     0.000014598499     0.000007280608
       2        0.000026666404    -0.000068647610     0.000012060134
       3        0.000044632390    -0.000015291448     0.000007853589
       4        0.000004714645     0.000007939054    -0.000018469309
       5       -0.000020235787     0.000011599786     0.000004923949
       6       -0.000057917720     0.000049801720    -0.000013648970

  **** Optimization is complete! (in 9 steps) ****
    Final optimized geometry and variables:
    Molecular point group: c1

    Geometry (in Angstrom), charge = 0, multiplicity = 1:

    O            0.675957109406     0.017760605680    -0.087381273982
    C           -0.713129321928     0.029175686057     0.069099569715
    H           -1.073251296735     0.962781071031    -0.337876319137
    H           -1.004986782077    -0.024784301446     1.115065507348
    H           -1.189894262188    -0.786621580370    -0.468816572996
    H            1.031311150605    -0.780638785424     0.255674875108

*** Psi4 exiting successfully. Buy a developer a beer!
