                               Psi4 1.3.2 release

  ==> Input File <==

--------------------------------------------------------------------------
molecule {
0 1
 O    0.689641    0.036170    0.013883
 C   -0.746115    0.019216    0.005882
 H   -1.094115   -0.338224    0.978792
 H   -1.088038   -0.625291   -0.808398
 H   -1.092756    1.043249   -0.161765
 H    0.967591   -0.848690   -0.287531
}
set optking {
  frozen_dihedral = ("
  ")
}
memory 700MB
set_num_threads(1)
psi4_io.set_default_path("/scratch/bdw2292")
optimize('hf/6-311G*')
clean()
--------------------------------------------------------------------------

    Molecular point group: c1
  Charge       = 0
  Multiplicity = 1
  Basis Set: 6-311G*
    Blend: 6-311G*
  Basis Set: (6-311G* AUX)
    Blend: CC-PVTZ-JKFIT
  @DF-RHF Final Energy:  -115.05923800013132
    Total Energy =                       -115.0592380001313160
    Molecular point group: c1
  Basis Set: 6-311G*
    Blend: 6-311G*
  Basis Set: (6-311G* AUX)
    Blend: CC-PVTZ-JKFIT
  Basis Set: 6-311G*
    Blend: 6-311G*
  Basis Set: (6-311G* AUX)
    Blend: CC-PVTZ-JKFIT
  @DF-RHF Final Energy:  -115.06294839282606
    Total Energy =                       -115.0629483928260584
  Basis Set: 6-311G*
    Blend: 6-311G*
  Basis Set: (6-311G* AUX)
    Blend: CC-PVTZ-JKFIT
  Basis Set: 6-311G*
    Blend: 6-311G*
  @DF-RHF Final Energy:  -115.06321266295227
    Total Energy =                       -115.0632126629522674
  @DF-RHF Final Energy:  -115.06352669031492
    Total Energy =                       -115.0635266903149159
  @DF-RHF Final Energy:  -115.06345889052879
    Total Energy =                       -115.0634588905287927
  @DF-RHF Final Energy:  -115.06370619849929
    Total Energy =                       -115.0637061984992897
  @DF-RHF Final Energy:  -115.06370941409583
    Total Energy =                       -115.0637094140958254
  Basis Set: (6-311G* AUX)
    Blend: CC-PVTZ-JKFIT
  Basis Set: 6-311G*
    Blend: 6-311G*
  Basis Set: (6-311G* AUX)
    Blend: CC-PVTZ-JKFIT
  @DF-RHF Final Energy:  -115.06371456076540
    Total Energy =                       -115.0637145607654048
  Basis Set: 6-311G*
    Blend: 6-311G*
  Basis Set: (6-311G* AUX)
    Blend: CC-PVTZ-JKFIT
  Charge       = 0
  Multiplicity = 1
  Basis Set: 6-311G*
    Blend: 6-311G*
  Basis Set: (6-311G* AUX)
    Blend: CC-PVTZ-JKFIT

    Orbital Energies [Eh]
    ---------------------

    Doubly Occupied:

       1A    -20.541667     2A    -11.264803     3A     -1.364466
       4A     -0.928358     5A     -0.697006     6A     -0.622293
       7A     -0.597321     8A     -0.498108     9A     -0.444934

  @DF-RHF Final Energy:  -115.06371471871739

   => Energetics <=

    Nuclear Repulsion Energy =             40.8524942814134135
    One-Electron Energy =                -237.9145051392470691
    Two-Electron Energy =                  81.9982961391162632
    Total Energy =                       -115.0637147187173923

  Dipole Moment: [D]
     X:    -1.0484      Y:    -1.6014      Z:     0.1860     Total:     1.9230

    Molecular point group: c1
  Basis Set: 6-311G*
    Blend: 6-311G*
  Basis Set: (6-311G* AUX)
    Blend: CC-PVTZ-JKFIT

  -Total Gradient:
     Atom            X                  Y                   Z
    ------   -----------------  -----------------  -----------------
       1        0.000022073044     0.000018802816     0.000005664363
       2       -0.000006234205    -0.000034849917    -0.000005316548
       3       -0.000001598825     0.000003145608     0.000003646187
       4       -0.000011651370     0.000001541300    -0.000001924973
       5        0.000014735512     0.000003169956    -0.000001010616
       6       -0.000017324154     0.000008190237    -0.000001058412

  **** Optimization is complete! (in 9 steps) ****
    Final optimized geometry and variables:
    Molecular point group: c1

    Geometry (in Angstrom), charge = 0, multiplicity = 1:

    O            0.679836740561     0.022604537194    -0.047087569784
    C           -0.715050376624     0.029152827782     0.045690198828
    H           -1.061942482104    -0.389466852905     0.987295521463
    H           -1.179612151553    -0.517355022421    -0.771448865672
    H           -1.034554439426     1.059716717380    -0.007871115678
    H            1.000588990036    -0.858762976971    -0.004687007027

*** Psi4 exiting successfully. Buy a developer a beer!
