                               Psi4 1.3.2 release

  ==> Input File <==

--------------------------------------------------------------------------
molecule {
0 1
 O    0.689505    0.041070    0.002570
 C   -0.746656    0.015107    0.012020
 H   -1.108484    0.549820   -0.870402
 H   -1.095532    0.475520    0.940442
 H   -1.074121   -1.027762   -0.028313
 H    0.972567   -0.843569   -0.294401
}
set optking {
  frozen_dihedral = ("
  ")
}
memory 700MB
set_num_threads(1)
psi4_io.set_default_path("/scratch/bdw2292")
optimize('hf/6-311G*')
clean()
--------------------------------------------------------------------------

    Molecular point group: c1
  Charge       = 0
  Multiplicity = 1
  Basis Set: 6-311G*
    Blend: 6-311G*
  Basis Set: (6-311G* AUX)
    Blend: CC-PVTZ-JKFIT
  @DF-RHF Final Energy:  -115.05821905259438
    Total Energy =                       -115.0582190525943815
    Molecular point group: c1
  Basis Set: 6-311G*
    Blend: 6-311G*
  Basis Set: (6-311G* AUX)
    Blend: CC-PVTZ-JKFIT
  Basis Set: 6-311G*
    Blend: 6-311G*
  Basis Set: (6-311G* AUX)
    Blend: CC-PVTZ-JKFIT
  @DF-RHF Final Energy:  -115.06191525827811
    Total Energy =                       -115.0619152582781055
  Basis Set: 6-311G*
    Blend: 6-311G*
  Basis Set: (6-311G* AUX)
    Blend: CC-PVTZ-JKFIT
  Basis Set: 6-311G*
    Blend: 6-311G*
  @DF-RHF Final Energy:  -115.06274673314613
    Total Energy =                       -115.0627467331461276
  @DF-RHF Final Energy:  -115.06329566461706
    Total Energy =                       -115.0632956646170584
  @DF-RHF Final Energy:  -115.06339689705233
    Total Energy =                       -115.0633968970523284
  @DF-RHF Final Energy:  -115.06251382653173
    Total Energy =                       -115.0625138265317275
  @DF-RHF Final Energy:  -115.06370870260126
    Total Energy =                       -115.0637087026012608
  Basis Set: (6-311G* AUX)
    Blend: CC-PVTZ-JKFIT
  Basis Set: 6-311G*
    Blend: 6-311G*
  Basis Set: (6-311G* AUX)
    Blend: CC-PVTZ-JKFIT
  @DF-RHF Final Energy:  -115.06371412299660
    Total Energy =                       -115.0637141229966005
  Basis Set: 6-311G*
    Blend: 6-311G*
  Basis Set: (6-311G* AUX)
    Blend: CC-PVTZ-JKFIT
  Charge       = 0
  Multiplicity = 1
  Basis Set: 6-311G*
    Blend: 6-311G*
  Basis Set: (6-311G* AUX)
    Blend: CC-PVTZ-JKFIT

    Orbital Energies [Eh]
    ---------------------

    Doubly Occupied:

       1A    -20.541665     2A    -11.264811     3A     -1.364436
       4A     -0.928358     5A     -0.696987     6A     -0.622278
       7A     -0.597334     8A     -0.498087     9A     -0.444928

  @DF-RHF Final Energy:  -115.06371471525561

   => Energetics <=

    Nuclear Repulsion Energy =             40.8514528917803190
    One-Electron Energy =                -237.9125650676407417
    Two-Electron Energy =                  81.9973974606048017
    Total Energy =                       -115.0637147152556139

  Dipole Moment: [D]
     X:    -0.9487      Y:    -0.8275      Z:    -1.4535     Total:     1.9229

    Molecular point group: c1
  Basis Set: 6-311G*
    Blend: 6-311G*
  Basis Set: (6-311G* AUX)
    Blend: CC-PVTZ-JKFIT

  -Total Gradient:
     Atom            X                  Y                   Z
    ------   -----------------  -----------------  -----------------
       1        0.000011708157     0.000001551220     0.000011703237
       2       -0.000004499152     0.000017878355     0.000012109531
       3       -0.000012670397     0.000004654045    -0.000006033922
       4       -0.000022847310     0.000003800630     0.000003916706
       5       -0.000005323451    -0.000006684766     0.000001095868
       6        0.000033632154    -0.000021199483    -0.000022791421

  **** Optimization is complete! (in 9 steps) ****
    Final optimized geometry and variables:
    Molecular point group: c1

    Geometry (in Angstrom), charge = 0, multiplicity = 1:

    O            0.674952851857    -0.023293348811     0.093895070998
    C           -0.713020992606     0.053680891463    -0.054531984799
    H           -0.996215621383     0.545794872259    -0.981811942714
    H           -1.091549782024     0.638214802405     0.771352055923
    H           -1.180341442872    -0.927573612351    -0.023384318903
    H            1.045934093276    -0.525922891303    -0.607035708102

*** Psi4 exiting successfully. Buy a developer a beer!
