                               Psi4 1.3.2 release

  ==> Input File <==

--------------------------------------------------------------------------
molecule {
0 1
 O    0.689420    0.036355    0.013604
 C   -0.745845    0.019459    0.006727
 H   -1.089015   -0.754571    0.698506
 H   -1.087669   -0.167878   -1.014748
 H   -1.094957    1.000493    0.342403
 H    0.964322   -0.849028   -0.289374
}
set optking {
  frozen_dihedral = ("
  ")
}
memory 700MB
set_num_threads(1)
psi4_io.set_default_path("/scratch/bdw2292")
optimize('hf/6-311G*')
clean()
--------------------------------------------------------------------------

    Molecular point group: c1
  Charge       = 0
  Multiplicity = 1
  Basis Set: 6-311G*
    Blend: 6-311G*
  Basis Set: (6-311G* AUX)
    Blend: CC-PVTZ-JKFIT
  @DF-RHF Final Energy:  -115.06022227828379
    Total Energy =                       -115.0602222782837885
    Molecular point group: c1
  Basis Set: 6-311G*
    Blend: 6-311G*
  Basis Set: (6-311G* AUX)
    Blend: CC-PVTZ-JKFIT
  Basis Set: 6-311G*
    Blend: 6-311G*
  Basis Set: (6-311G* AUX)
    Blend: CC-PVTZ-JKFIT
  @DF-RHF Final Energy:  -115.06353655381079
    Total Energy =                       -115.0635365538107919
  Basis Set: 6-311G*
    Blend: 6-311G*
  Basis Set: (6-311G* AUX)
    Blend: CC-PVTZ-JKFIT
  Basis Set: 6-311G*
    Blend: 6-311G*
  @DF-RHF Final Energy:  -115.06369848284783
    Total Energy =                       -115.0636984828478262
  Basis Set: (6-311G* AUX)
    Blend: CC-PVTZ-JKFIT
  Basis Set: 6-311G*
    Blend: 6-311G*
  Basis Set: (6-311G* AUX)
    Blend: CC-PVTZ-JKFIT
  @DF-RHF Final Energy:  -115.06371457045172
    Total Energy =                       -115.0637145704517224
  Basis Set: 6-311G*
    Blend: 6-311G*
  Basis Set: (6-311G* AUX)
    Blend: CC-PVTZ-JKFIT
  Charge       = 0
  Multiplicity = 1
  Basis Set: 6-311G*
    Blend: 6-311G*
  Basis Set: (6-311G* AUX)
    Blend: CC-PVTZ-JKFIT

    Orbital Energies [Eh]
    ---------------------

    Doubly Occupied:

       1A    -20.541664     2A    -11.264815     3A     -1.364434
       4A     -0.928364     5A     -0.696988     6A     -0.622269
       7A     -0.597344     8A     -0.498086     9A     -0.444927

  @DF-RHF Final Energy:  -115.06371467898117

   => Energetics <=

    Nuclear Repulsion Energy =             40.8511582788391863
    One-Electron Energy =                -237.9119647007964318
    Two-Electron Energy =                  81.9970917429760675
    Total Energy =                       -115.0637146789811709

  Dipole Moment: [D]
     X:    -1.0392      Y:    -1.5292      Z:    -0.5284     Total:     1.9229

    Molecular point group: c1
  Basis Set: 6-311G*
    Blend: 6-311G*
  Basis Set: (6-311G* AUX)
    Blend: CC-PVTZ-JKFIT

  -Total Gradient:
     Atom            X                  Y                   Z
    ------   -----------------  -----------------  -----------------
       1        0.000038434908    -0.000040147451     0.000001169907
       2        0.000000397508     0.000048722570     0.000015045472
       3       -0.000016785604    -0.000001024276     0.000005251325
       4       -0.000011960920    -0.000008213614    -0.000005750111
       5       -0.000042110843     0.000000535140    -0.000001443165
       6        0.000032024950     0.000000127631    -0.000014273427

  **** Optimization is complete! (in 5 steps) ****
    Final optimized geometry and variables:
    Molecular point group: c1

    Geometry (in Angstrom), charge = 0, multiplicity = 1:

    O            0.681168555205     0.028807715392     0.010729485128
    C           -0.716819255317     0.019883504065     0.006014679812
    H           -1.121015063100    -0.728412053629     0.683442513824
    H           -1.119023182083    -0.156393398391    -0.988664801978
    H           -1.044628812756     0.993949873267     0.338848999309
    H            1.009071845570    -0.803093246196    -0.275527188396

*** Psi4 exiting successfully. Buy a developer a beer!
