                               Psi4 1.3.2 release

  ==> Input File <==

--------------------------------------------------------------------------
molecule {
0 1
 O    0.698657    0.063556   -0.033316
 C   -0.735584    0.038352    0.022742
 H   -1.082399    0.974656    0.468563
 H   -1.048091   -0.830755    0.607896
 H   -1.110890   -0.048628   -1.001079
 H    0.966951   -0.827014   -0.326888
}
set {
 basis 6-311++G(2d,2p)
 e_convergence 10
 d_convergence 10
 scf_type pk
 pcm true
  pcm_scf_type total
}
pcm = {
 Units = Angstrom
 Medium {
 SolverType = IEFPCM
 Solvent = Water
 }
 Cavity {
 RadiiSet = UFF
 Type = GePol
 Scaling = False
 Area = 0.3
 Mode = Implicit
 }
}
memory 700MB
set_num_threads(1)
psi4_io.set_default_path("/scratch/bdw2292")
set freeze_core True
E, wfn = energy('mp2/6-311++G(2d,2p)',return_wfn=True)
clean()
--------------------------------------------------------------------------

    Molecular point group: c1

    Geometry (in Angstrom), charge = 0, multiplicity = 1:

       Center              X                  Y                   Z               Mass
    ------------   -----------------  -----------------  -----------------  -----------------
         O            0.696917032178     0.040470852334    -0.017283551654    15.994914619570
         C           -0.737323967822     0.015266852334     0.038774448346    12.000000000000
         H           -1.084138967822     0.951570852334     0.484595448346     1.007825032230
         H           -1.049830967822    -0.853840147666     0.623928448346     1.007825032230
         H           -1.112629967822    -0.071713147666    -0.985046551654     1.007825032230
         H            0.965211032178    -0.850099147666    -0.310855551654     1.007825032230

  Charge       = 0
  Multiplicity = 1
  Basis Set: 6-311++G(2D,2P)
    Blend: 6-311++G(2D,2P)

    Orbital Energies [Eh]
    ---------------------

    Doubly Occupied:

       1A    -20.563143     2A    -11.268798     3A     -1.355673
       4A     -0.919604     5A     -0.687034     6A     -0.620120
       7A     -0.593381     8A     -0.509155     9A     -0.452912

  @RHF Final Energy:  -115.09023958380780

   => Energetics <=

    Nuclear Repulsion Energy =             40.0785832620168492
    One-Electron Energy =                -236.4663531609390930
    Two-Electron Energy =                  81.3071691830457155
    PCM Polarization Energy =              -0.0096388679312778
    Total Energy =                       -115.0902395838078007

  Dipole Moment: [D]
     X:    -1.5263      Y:    -1.7977      Z:    -0.4947     Total:     2.4096

  Basis Set: (6-311++G(2D,2P) AUX)
    Blend: AUG-CC-PVTZ-RI
	 Reference Energy          =    -115.0902395838078007 [Eh]
	 Singles Energy            =      -0.0000000000000000 [Eh]
	 Same-Spin Energy          =      -0.0930095370099015 [Eh]
	 Opposite-Spin Energy      =      -0.2990699842685037 [Eh]
	 Correlation Energy        =      -0.3920795212784052 [Eh]
	 Total Energy              =    -115.4823191050862050 [Eh]

	 ================> DF-SCS-MP2 Energies <==================
	-----------------------------------------------------------
	 SCS Same-Spin Scale       =       0.3333333333333333 [-]
	 SCS Opposite-Spin Scale   =       1.2000000000000000 [-]
	 SCS Same-Spin Energy      =      -0.0310031790033005 [Eh]
	 SCS Opposite-Spin Energy  =      -0.3588839811222045 [Eh]
	 SCS Correlation Energy    =      -0.3898871601255050 [Eh]
	 SCS Total Energy          =    -115.4801267439333117 [Eh]
	-----------------------------------------------------------

*** Psi4 exiting successfully. Buy a developer a beer!
