                               Psi4 1.3.2 release

  ==> Input File <==

--------------------------------------------------------------------------
molecule {
0 1
 O    0.689956    0.036030    0.013344
 C   -0.746370    0.018725    0.005569
 H   -1.100135    0.161685    1.030250
 H   -1.090747   -0.931539   -0.411067
 H   -1.087782    0.843883   -0.626390
 H    0.971378   -0.848095   -0.286586
}
set optking {
  frozen_dihedral = ("
  ")
}
memory 700MB
set_num_threads(1)
psi4_io.set_default_path("/scratch/bdw2292")
optimize('hf/6-311G*')
clean()
--------------------------------------------------------------------------

    Molecular point group: c1
  Charge       = 0
  Multiplicity = 1
  Basis Set: 6-311G*
    Blend: 6-311G*
  Basis Set: (6-311G* AUX)
    Blend: CC-PVTZ-JKFIT
  @DF-RHF Final Energy:  -115.05799226309169
    Total Energy =                       -115.0579922630916911
    Molecular point group: c1
  Basis Set: 6-311G*
    Blend: 6-311G*
  Basis Set: (6-311G* AUX)
    Blend: CC-PVTZ-JKFIT
  Basis Set: 6-311G*
    Blend: 6-311G*
  Basis Set: (6-311G* AUX)
    Blend: CC-PVTZ-JKFIT
  @DF-RHF Final Energy:  -115.06130675347690
    Total Energy =                       -115.0613067534768987
  Basis Set: 6-311G*
    Blend: 6-311G*
  Basis Set: (6-311G* AUX)
    Blend: CC-PVTZ-JKFIT
  Basis Set: 6-311G*
    Blend: 6-311G*
  @DF-RHF Final Energy:  -115.06171125217568
    Total Energy =                       -115.0617112521756837
  @DF-RHF Final Energy:  -115.06232709231332
    Total Energy =                       -115.0623270923133248
  @DF-RHF Final Energy:  -115.06253209852512
    Total Energy =                       -115.0625320985251250
  @DF-RHF Final Energy:  -115.06054379334826
    Total Energy =                       -115.0605437933482591
  @DF-RHF Final Energy:  -115.06276581338965
    Total Energy =                       -115.0627658133896460
  @DF-RHF Final Energy:  -115.06335958606442
    Total Energy =                       -115.0633595860644220
  @DF-RHF Final Energy:  -115.06359649095739
    Total Energy =                       -115.0635964909573943
  @DF-RHF Final Energy:  -115.06369951414098
    Total Energy =                       -115.0636995141409784
  @DF-RHF Final Energy:  -115.06371161841777
    Total Energy =                       -115.0637116184177700
  Basis Set: (6-311G* AUX)
    Blend: CC-PVTZ-JKFIT
  Basis Set: 6-311G*
    Blend: 6-311G*
  Basis Set: (6-311G* AUX)
    Blend: CC-PVTZ-JKFIT
  @DF-RHF Final Energy:  -115.06371445883103
    Total Energy =                       -115.0637144588310292
  Basis Set: 6-311G*
    Blend: 6-311G*
  Basis Set: (6-311G* AUX)
    Blend: CC-PVTZ-JKFIT
  Charge       = 0
  Multiplicity = 1
  Basis Set: 6-311G*
    Blend: 6-311G*
  Basis Set: (6-311G* AUX)
    Blend: CC-PVTZ-JKFIT

    Orbital Energies [Eh]
    ---------------------

    Doubly Occupied:

       1A    -20.541664     2A    -11.264801     3A     -1.364460
       4A     -0.928365     5A     -0.697007     6A     -0.622290
       7A     -0.597331     8A     -0.498092     9A     -0.444932

  @DF-RHF Final Energy:  -115.06371471925411

   => Energetics <=

    Nuclear Repulsion Energy =             40.8524594830236296
    One-Electron Energy =                -237.9144656089149805
    Two-Electron Energy =                  81.9982914066372359
    Total Energy =                       -115.0637147192541079

  Dipole Moment: [D]
     X:    -0.9180      Y:    -1.3808      Z:     0.9737     Total:     1.9229

    Molecular point group: c1
  Basis Set: 6-311G*
    Blend: 6-311G*
  Basis Set: (6-311G* AUX)
    Blend: CC-PVTZ-JKFIT

  -Total Gradient:
     Atom            X                  Y                   Z
    ------   -----------------  -----------------  -----------------
       1        0.000004964893    -0.000004526437    -0.000006184522
       2        0.000004928125    -0.000026183062    -0.000001244009
       3       -0.000019226607     0.000007677154     0.000006301781
       4        0.000001224331     0.000015213791     0.000003663999
       5        0.000002404679     0.000001089510     0.000002537465
       6        0.000005704578     0.000006729042    -0.000005074715

  **** Optimization is complete! (in 13 steps) ****
    Final optimized geometry and variables:
    Molecular point group: c1

    Geometry (in Angstrom), charge = 0, multiplicity = 1:

    O            0.672144364769     0.022515264037    -0.112307683353
    C           -0.710956238017     0.021793757733     0.091076320434
    H           -0.966842874591     0.060625204270     1.147126550068
    H           -1.186622703033    -0.850021281931    -0.351444536966
    H           -1.105480684465     0.905875782690    -0.388261990170
    H            1.056761558071    -0.733307823824     0.290554266898

*** Psi4 exiting successfully. Buy a developer a beer!
