                               Psi4 1.3.2 release

  ==> Input File <==

--------------------------------------------------------------------------
molecule {
0 1
 O    0.697514    0.048094    0.176143
 C   -0.735160    0.037917    0.075078
 H   -1.042256   -0.799901   -0.556593
 H   -1.060480    0.996230   -0.339007
 H   -1.140948   -0.090909    1.082767
 H    0.990524   -0.846712   -0.077660
}
set {
 basis 6-311++G(2d,2p)
 e_convergence 10
 d_convergence 10
 scf_type pk
 pcm true
  pcm_scf_type total
}
pcm = {
 Units = Angstrom
 Medium {
 SolverType = IEFPCM
 Solvent = Water
 }
 Cavity {
 RadiiSet = UFF
 Type = GePol
 Scaling = False
 Area = 0.3
 Mode = Implicit
 }
}
memory 700MB
set_num_threads(1)
psi4_io.set_default_path("/scratch/bdw2292")
set freeze_core True
E, wfn = energy('mp2/6-311++G(2d,2p)',return_wfn=True)
clean()
--------------------------------------------------------------------------

    Molecular point group: c1

    Geometry (in Angstrom), charge = 0, multiplicity = 1:

       Center              X                  Y                   Z               Mass
    ------------   -----------------  -----------------  -----------------  -----------------
         O            0.695516704134     0.033194618550     0.056594306166    15.994914619570
         C           -0.737157295866     0.023017618550    -0.044470693834    12.000000000000
         H           -1.044253295866    -0.814800381450    -0.676141693834     1.007825032230
         H           -1.062477295866     0.981330618550    -0.458555693834     1.007825032230
         H           -1.142945295866    -0.105808381450     0.963218306166     1.007825032230
         H            0.988526704134    -0.861611381450    -0.197208693834     1.007825032230

  Charge       = 0
  Multiplicity = 1
  Basis Set: 6-311++G(2D,2P)
    Blend: 6-311++G(2D,2P)

    Orbital Energies [Eh]
    ---------------------

    Doubly Occupied:

       1A    -20.562659     2A    -11.268738     3A     -1.355153
       4A     -0.919732     5A     -0.688250     6A     -0.618784
       7A     -0.593015     8A     -0.508590     9A     -0.452812

  @RHF Final Energy:  -115.08926881237774

   => Energetics <=

    Nuclear Repulsion Energy =             40.0634554534637033
    One-Electron Energy =                -236.4396632749497371
    Two-Electron Energy =                  81.2965615238486379
    PCM Polarization Energy =              -0.0096225147403230
    Total Energy =                       -115.0892688123777390

  Dipole Moment: [D]
     X:    -1.4703      Y:    -1.8231      Z:    -0.6786     Total:     2.4384

  Basis Set: (6-311++G(2D,2P) AUX)
    Blend: AUG-CC-PVTZ-RI
	 Reference Energy          =    -115.0892688123777390 [Eh]
	 Singles Energy            =      -0.0000000000000000 [Eh]
	 Same-Spin Energy          =      -0.0930557135603055 [Eh]
	 Opposite-Spin Energy      =      -0.2991382593589481 [Eh]
	 Correlation Energy        =      -0.3921939729192536 [Eh]
	 Total Energy              =    -115.4814627852969977 [Eh]

	 ================> DF-SCS-MP2 Energies <==================
	-----------------------------------------------------------
	 SCS Same-Spin Scale       =       0.3333333333333333 [-]
	 SCS Opposite-Spin Scale   =       1.2000000000000000 [-]
	 SCS Same-Spin Energy      =      -0.0310185711867685 [Eh]
	 SCS Opposite-Spin Energy  =      -0.3589659112307377 [Eh]
	 SCS Correlation Energy    =      -0.3899844824175063 [Eh]
	 SCS Total Energy          =    -115.4792532947952424 [Eh]
	-----------------------------------------------------------

*** Psi4 exiting successfully. Buy a developer a beer!
