                               Psi4 1.3.2 release

  ==> Input File <==

--------------------------------------------------------------------------
molecule {
0 1
 O    0.699838    0.040354    0.057162
 C   -0.735586    0.030360    0.036261
 H   -1.069895   -0.395505   -0.913634
 H   -1.092145    1.055424    0.169743
 H   -1.079479   -0.595138    0.865190
 H    0.974568   -0.846711   -0.240990
}
set {
 basis 6-311++G(2d,2p)
 e_convergence 10
 d_convergence 10
 scf_type pk
 pcm true
  pcm_scf_type total
}
pcm = {
 Units = Angstrom
 Medium {
 SolverType = IEFPCM
 Solvent = Water
 }
 Cavity {
 RadiiSet = UFF
 Type = GePol
 Scaling = False
 Area = 0.3
 Mode = Implicit
 }
}
memory 700MB
set_num_threads(1)
psi4_io.set_default_path("/scratch/bdw2292")
set freeze_core True
E, wfn = energy('mp2/6-311++G(2d,2p)',return_wfn=True)
clean()
--------------------------------------------------------------------------

    Molecular point group: c1

    Geometry (in Angstrom), charge = 0, multiplicity = 1:

       Center              X                  Y                   Z               Mass
    ------------   -----------------  -----------------  -----------------  -----------------
         O            0.697273629108     0.033430604312     0.018793253234    15.994914619570
         C           -0.738150370892     0.023436604312    -0.002107746766    12.000000000000
         H           -1.072459370892    -0.402428395688    -0.952002746766     1.007825032230
         H           -1.094709370892     1.048500604312     0.131374253234     1.007825032230
         H           -1.082043370892    -0.602061395688     0.826821253234     1.007825032230
         H            0.972003629108    -0.853634395688    -0.279358746766     1.007825032230

  Charge       = 0
  Multiplicity = 1
  Basis Set: 6-311++G(2D,2P)
    Blend: 6-311++G(2D,2P)

    Orbital Energies [Eh]
    ---------------------

    Doubly Occupied:

       1A    -20.563120     2A    -11.268808     3A     -1.355650
       4A     -0.919627     5A     -0.687170     6A     -0.619909
       7A     -0.593421     8A     -0.509236     9A     -0.452843

  @RHF Final Energy:  -115.09016288385033

   => Energetics <=

    Nuclear Repulsion Energy =             40.0773751860533807
    One-Electron Energy =                -236.4642478033559883
    Two-Electron Energy =                  81.3063443853985603
    PCM Polarization Energy =              -0.0096346519462917
    Total Energy =                       -115.0901628838503257

  Dipole Moment: [D]
     X:    -1.5152      Y:    -1.7668      Z:    -0.6304     Total:     2.4114

  Basis Set: (6-311++G(2D,2P) AUX)
    Blend: AUG-CC-PVTZ-RI
	 Reference Energy          =    -115.0901628838503257 [Eh]
	 Singles Energy            =      -0.0000000000000000 [Eh]
	 Same-Spin Energy          =      -0.0930129709984605 [Eh]
	 Opposite-Spin Energy      =      -0.2990749457607593 [Eh]
	 Correlation Energy        =      -0.3920879167592198 [Eh]
	 Total Energy              =    -115.4822508006095489 [Eh]

	 ================> DF-SCS-MP2 Energies <==================
	-----------------------------------------------------------
	 SCS Same-Spin Scale       =       0.3333333333333333 [-]
	 SCS Opposite-Spin Scale   =       1.2000000000000000 [-]
	 SCS Same-Spin Energy      =      -0.0310043236661535 [Eh]
	 SCS Opposite-Spin Energy  =      -0.3588899349129112 [Eh]
	 SCS Correlation Energy    =      -0.3898942585790647 [Eh]
	 SCS Total Energy          =    -115.4800571424293878 [Eh]
	-----------------------------------------------------------

*** Psi4 exiting successfully. Buy a developer a beer!
