                               Psi4 1.3.2 release

  ==> Input File <==

--------------------------------------------------------------------------
molecule {
0 1
 O    0.689155    0.041101    0.003484
 C   -0.746309    0.015830    0.012079
 H   -1.100882    0.073343   -1.020574
 H   -1.104853    0.855425    0.613937
 H   -1.067482   -0.927763    0.462750
 H    0.967777   -0.844635   -0.294957
}
set optking {
  frozen_dihedral = ("
  ")
}
memory 700MB
set_num_threads(1)
psi4_io.set_default_path("/scratch/bdw2292")
optimize('hf/6-311G*')
clean()
--------------------------------------------------------------------------

    Molecular point group: c1
  Charge       = 0
  Multiplicity = 1
  Basis Set: 6-311G*
    Blend: 6-311G*
  Basis Set: (6-311G* AUX)
    Blend: CC-PVTZ-JKFIT
  @DF-RHF Final Energy:  -115.05960363588493
    Total Energy =                       -115.0596036358849261
    Molecular point group: c1
  Basis Set: 6-311G*
    Blend: 6-311G*
  Basis Set: (6-311G* AUX)
    Blend: CC-PVTZ-JKFIT
  Basis Set: 6-311G*
    Blend: 6-311G*
  Basis Set: (6-311G* AUX)
    Blend: CC-PVTZ-JKFIT
  @DF-RHF Final Energy:  -115.06327953823448
    Total Energy =                       -115.0632795382344824
  Basis Set: 6-311G*
    Blend: 6-311G*
  Basis Set: (6-311G* AUX)
    Blend: CC-PVTZ-JKFIT
  Basis Set: 6-311G*
    Blend: 6-311G*
  @DF-RHF Final Energy:  -115.06355252152450
    Total Energy =                       -115.0635525215244996
  @DF-RHF Final Energy:  -115.06368183627734
    Total Energy =                       -115.0636818362773397
  @DF-RHF Final Energy:  -115.06370927181597
    Total Energy =                       -115.0637092718159664
  Basis Set: (6-311G* AUX)
    Blend: CC-PVTZ-JKFIT
  Basis Set: 6-311G*
    Blend: 6-311G*
  Basis Set: (6-311G* AUX)
    Blend: CC-PVTZ-JKFIT
  @DF-RHF Final Energy:  -115.06368149382516
    Total Energy =                       -115.0636814938251575
  Basis Set: 6-311G*
    Blend: 6-311G*
  Basis Set: (6-311G* AUX)
    Blend: CC-PVTZ-JKFIT
  Charge       = 0
  Multiplicity = 1
  Basis Set: 6-311G*
    Blend: 6-311G*
  Basis Set: (6-311G* AUX)
    Blend: CC-PVTZ-JKFIT

    Orbital Energies [Eh]
    ---------------------

    Doubly Occupied:

       1A    -20.541696     2A    -11.264818     3A     -1.364420
       4A     -0.928346     5A     -0.696963     6A     -0.622273
       7A     -0.597280     8A     -0.498163     9A     -0.444958

  @DF-RHF Final Energy:  -115.06371464843629

   => Energetics <=

    Nuclear Repulsion Energy =             40.8497274494722973
    One-Electron Energy =                -237.9090523439386686
    Two-Electron Energy =                  81.9956102460300968
    Total Energy =                       -115.0637146484362887

  Dipole Moment: [D]
     X:    -1.0674      Y:    -1.2715      Z:    -0.9724     Total:     1.9240

    Molecular point group: c1
  Basis Set: 6-311G*
    Blend: 6-311G*
  Basis Set: (6-311G* AUX)
    Blend: CC-PVTZ-JKFIT

  -Total Gradient:
     Atom            X                  Y                   Z
    ------   -----------------  -----------------  -----------------
       1        0.000175387783     0.000102138905     0.000063250691
       2       -0.000076748096    -0.000065110419    -0.000025790644
       3       -0.000012389029    -0.000002032504     0.000000376442
       4       -0.000012968433     0.000008114450     0.000009233723
       5       -0.000020697142     0.000013039332    -0.000010110456
       6       -0.000052585082    -0.000056149764    -0.000036959755

  **** Optimization is complete! (in 7 steps) ****
    Final optimized geometry and variables:
    Molecular point group: c1

    Geometry (in Angstrom), charge = 0, multiplicity = 1:

    O            0.681301541502     0.002325965574     0.029442385076
    C           -0.716031350407     0.040407848417     0.000372063835
    H           -1.098069545316     0.181246841169    -1.007794769908
    H           -1.026108616295     0.881420746228     0.603368428329
    H           -1.156277627561    -0.862029088883     0.417439578761
    H            0.993368538993    -0.718682588584    -0.484715354424

*** Psi4 exiting successfully. Buy a developer a beer!
