                               Psi4 1.3.2 release

  ==> Input File <==

--------------------------------------------------------------------------
molecule {
0 1
 O    0.700714    0.015731    0.116755
 C   -0.734532    0.036871    0.079810
 H   -1.111584   -0.339512    1.034581
 H   -1.076118   -0.574360   -0.759873
 H   -1.051134    1.074146   -0.064173
 H    0.961908   -0.866975   -0.205252
}
set {
 basis 6-311++G(2d,2p)
 e_convergence 10
 d_convergence 10
 scf_type pk
 pcm true
  pcm_scf_type total
}
pcm = {
 Units = Angstrom
 Medium {
 SolverType = IEFPCM
 Solvent = Water
 }
 Cavity {
 RadiiSet = UFF
 Type = GePol
 Scaling = False
 Area = 0.3
 Mode = Implicit
 }
}
memory 700MB
set_num_threads(1)
psi4_io.set_default_path("/scratch/bdw2292")
set freeze_core True
E, wfn = energy('mp2/6-311++G(2d,2p)',return_wfn=True)
clean()
--------------------------------------------------------------------------

    Molecular point group: c1

    Geometry (in Angstrom), charge = 0, multiplicity = 1:

       Center              X                  Y                   Z               Mass
    ------------   -----------------  -----------------  -----------------  -----------------
         O            0.697631164001     0.016298127785     0.028373322106    15.994914619570
         C           -0.737614835999     0.037438127785    -0.008571677894    12.000000000000
         H           -1.114666835999    -0.338944872215     0.946199322106     1.007825032230
         H           -1.079200835999    -0.573792872215    -0.848254677894     1.007825032230
         H           -1.054216835999     1.074713127785    -0.152554677894     1.007825032230
         H            0.958825164001    -0.866407872215    -0.293633677894     1.007825032230

  Charge       = 0
  Multiplicity = 1
  Basis Set: 6-311++G(2D,2P)
    Blend: 6-311++G(2D,2P)

    Orbital Energies [Eh]
    ---------------------

    Doubly Occupied:

       1A    -20.563006     2A    -11.268719     3A     -1.355469
       4A     -0.919763     5A     -0.686980     6A     -0.621469
       7A     -0.592333     8A     -0.506860     9A     -0.454446

  @RHF Final Energy:  -115.08984580517934

   => Energetics <=

    Nuclear Repulsion Energy =             40.0704098137720166
    One-Electron Energy =                -236.4526397375034890
    Two-Electron Energy =                  81.3019447933501169
    PCM Polarization Energy =              -0.0095606747979800
    Total Energy =                       -115.0898458051793369

  Dipole Moment: [D]
     X:    -1.5388      Y:    -1.7206      Z:    -0.7286     Total:     2.4206

  Basis Set: (6-311++G(2D,2P) AUX)
    Blend: AUG-CC-PVTZ-RI
	 Reference Energy          =    -115.0898458051793369 [Eh]
	 Singles Energy            =      -0.0000000000000000 [Eh]
	 Same-Spin Energy          =      -0.0930429819113303 [Eh]
	 Opposite-Spin Energy      =      -0.2991204472627020 [Eh]
	 Correlation Energy        =      -0.3921634291740324 [Eh]
	 Total Energy              =    -115.4820092343533702 [Eh]

	 ================> DF-SCS-MP2 Energies <==================
	-----------------------------------------------------------
	 SCS Same-Spin Scale       =       0.3333333333333333 [-]
	 SCS Opposite-Spin Scale   =       1.2000000000000000 [-]
	 SCS Same-Spin Energy      =      -0.0310143273037768 [Eh]
	 SCS Opposite-Spin Energy  =      -0.3589445367152423 [Eh]
	 SCS Correlation Energy    =      -0.3899588640190191 [Eh]
	 SCS Total Energy          =    -115.4798046691983586 [Eh]
	-----------------------------------------------------------

*** Psi4 exiting successfully. Buy a developer a beer!
