                               Psi4 1.3.2 release

  ==> Input File <==

--------------------------------------------------------------------------
molecule {
0 1
 O    0.702144    0.019164    0.080728
 C   -0.732980    0.061160    0.066744
 H   -1.048705    1.100145   -0.061840
 H   -1.101784   -0.364446    1.003898
 H   -1.083799   -0.540110   -0.777065
 H    0.942910   -0.899020   -0.143241
}
set {
 basis 6-311++G(2d,2p)
 e_convergence 10
 d_convergence 10
 scf_type pk
 pcm true
  pcm_scf_type total
}
pcm = {
 Units = Angstrom
 Medium {
 SolverType = IEFPCM
 Solvent = Water
 }
 Cavity {
 RadiiSet = UFF
 Type = GePol
 Scaling = False
 Area = 0.3
 Mode = Implicit
 }
}
memory 700MB
set_num_threads(1)
psi4_io.set_default_path("/scratch/bdw2292")
set freeze_core True
E, wfn = energy('mp2/6-311++G(2d,2p)',return_wfn=True)
clean()
--------------------------------------------------------------------------

    Molecular point group: c1

    Geometry (in Angstrom), charge = 0, multiplicity = 1:

       Center              X                  Y                   Z               Mass
    ------------   -----------------  -----------------  -----------------  -----------------
         O            0.698220176191     0.008812755679     0.014716837141    15.994914619570
         C           -0.736903823809     0.050808755679     0.000732837141    12.000000000000
         H           -1.052628823809     1.089793755679    -0.127851162859     1.007825032230
         H           -1.105707823809    -0.374797244321     0.937886837141     1.007825032230
         H           -1.087722823809    -0.550461244321    -0.843076162859     1.007825032230
         H            0.938986176191    -0.909371244321    -0.209252162859     1.007825032230

  Charge       = 0
  Multiplicity = 1
  Basis Set: 6-311++G(2D,2P)
    Blend: 6-311++G(2D,2P)

    Orbital Energies [Eh]
    ---------------------

    Doubly Occupied:

       1A    -20.563023     2A    -11.268830     3A     -1.355541
       4A     -0.919643     5A     -0.687152     6A     -0.621262
       7A     -0.592666     8A     -0.507499     9A     -0.453933

  @RHF Final Energy:  -115.08994496005494

   => Energetics <=

    Nuclear Repulsion Energy =             40.0738732797818926
    One-Electron Energy =                -236.4583940720586952
    Two-Electron Energy =                  81.3041908754050269
    PCM Polarization Energy =              -0.0096150431831514
    Total Energy =                       -115.0899449600549360

  Dipole Moment: [D]
     X:    -1.5828      Y:    -1.7630      Z:    -0.4981     Total:     2.4210

  Basis Set: (6-311++G(2D,2P) AUX)
    Blend: AUG-CC-PVTZ-RI
	 Reference Energy          =    -115.0899449600549360 [Eh]
	 Singles Energy            =      -0.0000000000000000 [Eh]
	 Same-Spin Energy          =      -0.0930252103091070 [Eh]
	 Opposite-Spin Energy      =      -0.2990937626233370 [Eh]
	 Correlation Energy        =      -0.3921189729324440 [Eh]
	 Total Energy              =    -115.4820639329873870 [Eh]

	 ================> DF-SCS-MP2 Energies <==================
	-----------------------------------------------------------
	 SCS Same-Spin Scale       =       0.3333333333333333 [-]
	 SCS Opposite-Spin Scale   =       1.2000000000000000 [-]
	 SCS Same-Spin Energy      =      -0.0310084034363690 [Eh]
	 SCS Opposite-Spin Energy  =      -0.3589125151480044 [Eh]
	 SCS Correlation Energy    =      -0.3899209185843734 [Eh]
	 SCS Total Energy          =    -115.4798658786393162 [Eh]
	-----------------------------------------------------------

*** Psi4 exiting successfully. Buy a developer a beer!
