                               Psi4 1.3.2 release

  ==> Input File <==

--------------------------------------------------------------------------
molecule {
0 1
 O    0.704663    0.054983    0.179478
 C   -0.730703    0.058034    0.122562
 H   -1.052825    0.930044   -0.453181
 H   -1.117733    0.077650    1.144988
 H   -1.059475   -0.856798   -0.378836
 H    0.982179   -0.846228   -0.068879
}
set {
 basis 6-311++G(2d,2p)
 e_convergence 10
 d_convergence 10
 scf_type pk
 pcm true
  pcm_scf_type total
}
pcm = {
 Units = Angstrom
 Medium {
 SolverType = IEFPCM
 Solvent = Water
 }
 Cavity {
 RadiiSet = UFF
 Type = GePol
 Scaling = False
 Area = 0.3
 Mode = Implicit
 }
}
memory 700MB
set_num_threads(1)
psi4_io.set_default_path("/scratch/bdw2292")
set freeze_core True
E, wfn = energy('mp2/6-311++G(2d,2p)',return_wfn=True)
clean()
--------------------------------------------------------------------------

    Molecular point group: c1

    Geometry (in Angstrom), charge = 0, multiplicity = 1:

       Center              X                  Y                   Z               Mass
    ------------   -----------------  -----------------  -----------------  -----------------
         O            0.697258285068     0.027659027995     0.036236553895    15.994914619570
         C           -0.738107714932     0.030710027995    -0.020679446105    12.000000000000
         H           -1.060229714932     0.902720027995    -0.596422446105     1.007825032230
         H           -1.125137714932     0.050326027995     1.001746553895     1.007825032230
         H           -1.066879714932    -0.884121972005    -0.522077446105     1.007825032230
         H            0.974774285068    -0.873551972005    -0.212120446105     1.007825032230

  Charge       = 0
  Multiplicity = 1
  Basis Set: 6-311++G(2D,2P)
    Blend: 6-311++G(2D,2P)

    Orbital Energies [Eh]
    ---------------------

    Doubly Occupied:

       1A    -20.562486     2A    -11.268748     3A     -1.354978
       4A     -0.919663     5A     -0.687987     6A     -0.621400
       7A     -0.591676     8A     -0.505362     9A     -0.454827

  @RHF Final Energy:  -115.08903102998907

   => Energetics <=

    Nuclear Repulsion Energy =             40.0602470415703706
    One-Electron Energy =                -236.4342689334003182
    Two-Electron Energy =                  81.2946084853319633
    PCM Polarization Energy =              -0.0096176234910827
    Total Energy =                       -115.0890310299890729

  Dipole Moment: [D]
     X:    -1.5081      Y:    -1.8362      Z:    -0.6105     Total:     2.4533

  Basis Set: (6-311++G(2D,2P) AUX)
    Blend: AUG-CC-PVTZ-RI
	 Reference Energy          =    -115.0890310299890729 [Eh]
	 Singles Energy            =      -0.0000000000000000 [Eh]
	 Same-Spin Energy          =      -0.0930664117232989 [Eh]
	 Opposite-Spin Energy      =      -0.2991555569447637 [Eh]
	 Correlation Energy        =      -0.3922219686680626 [Eh]
	 Total Energy              =    -115.4812529986571406 [Eh]

	 ================> DF-SCS-MP2 Energies <==================
	-----------------------------------------------------------
	 SCS Same-Spin Scale       =       0.3333333333333333 [-]
	 SCS Opposite-Spin Scale   =       1.2000000000000000 [-]
	 SCS Same-Spin Energy      =      -0.0310221372410996 [Eh]
	 SCS Opposite-Spin Energy  =      -0.3589866683337165 [Eh]
	 SCS Correlation Energy    =      -0.3900088055748161 [Eh]
	 SCS Total Energy          =    -115.4790398355638956 [Eh]
	-----------------------------------------------------------

*** Psi4 exiting successfully. Buy a developer a beer!
