                               Psi4 1.3.2 release

  ==> Input File <==

--------------------------------------------------------------------------
molecule {
0 1
 O    0.705384    0.140466   -0.092313
 C   -0.730544    0.104195   -0.080908
 H   -1.097454    0.639165   -0.961069
 H   -1.081377    0.559080    0.849502
 H   -1.050596   -0.940856   -0.124179
 H    0.994351   -0.741158   -0.392569
}
set {
 basis 6-311++G(2d,2p)
 e_convergence 10
 d_convergence 10
 scf_type pk
 pcm true
  pcm_scf_type total
}
pcm = {
 Units = Angstrom
 Medium {
 SolverType = IEFPCM
 Solvent = Water
 }
 Cavity {
 RadiiSet = UFF
 Type = GePol
 Scaling = False
 Area = 0.3
 Mode = Implicit
 }
}
memory 700MB
set_num_threads(1)
psi4_io.set_default_path("/scratch/bdw2292")
set freeze_core True
E, wfn = energy('mp2/6-311++G(2d,2p)',return_wfn=True)
clean()
--------------------------------------------------------------------------

    Molecular point group: c1

    Geometry (in Angstrom), charge = 0, multiplicity = 1:

       Center              X                  Y                   Z               Mass
    ------------   -----------------  -----------------  -----------------  -----------------
         O            0.697157510721     0.046495257826     0.003879015279    15.994914619570
         C           -0.738770489279     0.010224257826     0.015284015279    12.000000000000
         H           -1.105680489279     0.545194257826    -0.864876984721     1.007825032230
         H           -1.089603489279     0.465109257826     0.945694015279     1.007825032230
         H           -1.058822489279    -1.034826742174    -0.027986984721     1.007825032230
         H            0.986124510721    -0.835128742174    -0.296376984721     1.007825032230

  Charge       = 0
  Multiplicity = 1
  Basis Set: 6-311++G(2D,2P)
    Blend: 6-311++G(2D,2P)

    Orbital Energies [Eh]
    ---------------------

    Doubly Occupied:

       1A    -20.562535     2A    -11.268746     3A     -1.355023
       4A     -0.919652     5A     -0.687882     6A     -0.621393
       7A     -0.591760     8A     -0.505557     9A     -0.454738

  @RHF Final Energy:  -115.08913272991764

   => Energetics <=

    Nuclear Repulsion Energy =             40.0614929775882089
    One-Electron Energy =                -236.4364383411204358
    Two-Electron Energy =                  81.2954334940333752
    PCM Polarization Energy =              -0.0096208604187893
    Total Energy =                       -115.0891327299176368

  Dipole Moment: [D]
     X:    -1.4861      Y:    -1.8618      Z:    -0.5726     Total:     2.4501

  Basis Set: (6-311++G(2D,2P) AUX)
    Blend: AUG-CC-PVTZ-RI
	 Reference Energy          =    -115.0891327299176368 [Eh]
	 Singles Energy            =      -0.0000000000000000 [Eh]
	 Same-Spin Energy          =      -0.0930623837291643 [Eh]
	 Opposite-Spin Energy      =      -0.2991493932334044 [Eh]
	 Correlation Energy        =      -0.3922117769625688 [Eh]
	 Total Energy              =    -115.4813445068802054 [Eh]

	 ================> DF-SCS-MP2 Energies <==================
	-----------------------------------------------------------
	 SCS Same-Spin Scale       =       0.3333333333333333 [-]
	 SCS Opposite-Spin Scale   =       1.2000000000000000 [-]
	 SCS Same-Spin Energy      =      -0.0310207945763881 [Eh]
	 SCS Opposite-Spin Energy  =      -0.3589792718800853 [Eh]
	 SCS Correlation Energy    =      -0.3900000664564734 [Eh]
	 SCS Total Energy          =    -115.4791327963741168 [Eh]
	-----------------------------------------------------------

*** Psi4 exiting successfully. Buy a developer a beer!
