                               Psi4 1.3.2 release

  ==> Input File <==

--------------------------------------------------------------------------
molecule {
0 1
 O    0.698107    0.117717   -0.116917
 C   -0.734147    0.086805   -0.015413
 H   -1.032223    0.664590    0.863780
 H   -1.063746   -0.953318    0.053932
 H   -1.143963    0.545025   -0.920270
 H    0.960483   -0.754421   -0.465530
}
set {
 basis 6-311++G(2d,2p)
 e_convergence 10
 d_convergence 10
 scf_type pk
 pcm true
  pcm_scf_type total
}
pcm = {
 Units = Angstrom
 Medium {
 SolverType = IEFPCM
 Solvent = Water
 }
 Cavity {
 RadiiSet = UFF
 Type = GePol
 Scaling = False
 Area = 0.3
 Mode = Implicit
 }
}
memory 700MB
set_num_threads(1)
psi4_io.set_default_path("/scratch/bdw2292")
set freeze_core True
E, wfn = energy('mp2/6-311++G(2d,2p)',return_wfn=True)
clean()
--------------------------------------------------------------------------

    Molecular point group: c1

    Geometry (in Angstrom), charge = 0, multiplicity = 1:

       Center              X                  Y                   Z               Mass
    ------------   -----------------  -----------------  -----------------  -----------------
         O            0.696261258975     0.042075481109    -0.038019626205    15.994914619570
         C           -0.735992741025     0.011163481109     0.063484373795    12.000000000000
         H           -1.034068741025     0.588948481109     0.942677373795     1.007825032230
         H           -1.065591741025    -1.028959518891     0.132829373795     1.007825032230
         H           -1.145808741025     0.469383481109    -0.841372626205     1.007825032230
         H            0.958637258975    -0.830062518891    -0.386632626205     1.007825032230

  Charge       = 0
  Multiplicity = 1
  Basis Set: 6-311++G(2D,2P)
    Blend: 6-311++G(2D,2P)

    Orbital Energies [Eh]
    ---------------------

    Doubly Occupied:

       1A    -20.562732     2A    -11.268753     3A     -1.355231
       4A     -0.919722     5A     -0.688129     6A     -0.618851
       7A     -0.593126     8A     -0.508771     9A     -0.452763

  @RHF Final Energy:  -115.08939393486975

   => Energetics <=

    Nuclear Repulsion Energy =             40.0653636280667840
    One-Electron Energy =                -236.4430535683213179
    Two-Electron Energy =                  81.2979188501476244
    PCM Polarization Energy =              -0.0096228447628422
    Total Energy =                       -115.0893939348697472

  Dipole Moment: [D]
     X:    -1.5317      Y:    -1.8140      Z:    -0.5375     Total:     2.4342

  Basis Set: (6-311++G(2D,2P) AUX)
    Blend: AUG-CC-PVTZ-RI
	 Reference Energy          =    -115.0893939348697472 [Eh]
	 Singles Energy            =      -0.0000000000000000 [Eh]
	 Same-Spin Energy          =      -0.0930497342285195 [Eh]
	 Opposite-Spin Energy      =      -0.2991291664072560 [Eh]
	 Correlation Energy        =      -0.3921789006357755 [Eh]
	 Total Energy              =    -115.4815728355055171 [Eh]

	 ================> DF-SCS-MP2 Energies <==================
	-----------------------------------------------------------
	 SCS Same-Spin Scale       =       0.3333333333333333 [-]
	 SCS Opposite-Spin Scale   =       1.2000000000000000 [-]
	 SCS Same-Spin Energy      =      -0.0310165780761732 [Eh]
	 SCS Opposite-Spin Energy  =      -0.3589549996887072 [Eh]
	 SCS Correlation Energy    =      -0.3899715777648804 [Eh]
	 SCS Total Energy          =    -115.4793655126346295 [Eh]
	-----------------------------------------------------------

*** Psi4 exiting successfully. Buy a developer a beer!
