                               Psi4 1.3.2 release

  ==> Input File <==

--------------------------------------------------------------------------
molecule {
0 1
 O    0.689412    0.036609    0.013705
 C   -0.746016    0.019689    0.004696
 H   -1.107289    0.949503    0.452610
 H   -1.089503   -0.858434    0.558170
 H   -1.075257   -0.045175   -1.036464
 H    0.965642   -0.849888   -0.284780
}
set optking {
  frozen_dihedral = ("
  ")
}
memory 700MB
set_num_threads(1)
psi4_io.set_default_path("/scratch/bdw2292")
optimize('hf/6-311G*')
clean()
--------------------------------------------------------------------------

    Molecular point group: c1
  Charge       = 0
  Multiplicity = 1
  Basis Set: 6-311G*
    Blend: 6-311G*
  Basis Set: (6-311G* AUX)
    Blend: CC-PVTZ-JKFIT
  @DF-RHF Final Energy:  -115.05984563352072
    Total Energy =                       -115.0598456335207231
    Molecular point group: c1
  Basis Set: 6-311G*
    Blend: 6-311G*
  Basis Set: (6-311G* AUX)
    Blend: CC-PVTZ-JKFIT
  Basis Set: 6-311G*
    Blend: 6-311G*
  Basis Set: (6-311G* AUX)
    Blend: CC-PVTZ-JKFIT
  @DF-RHF Final Energy:  -115.06345077403496
    Total Energy =                       -115.0634507740349619
  Basis Set: 6-311G*
    Blend: 6-311G*
  Basis Set: (6-311G* AUX)
    Blend: CC-PVTZ-JKFIT
  Basis Set: 6-311G*
    Blend: 6-311G*
  @DF-RHF Final Energy:  -115.06347208527177
    Total Energy =                       -115.0634720852717692
  @DF-RHF Final Energy:  -115.06317367040766
    Total Energy =                       -115.0631736704076644
  @DF-RHF Final Energy:  -115.06368854772695
    Total Energy =                       -115.0636885477269544
  @DF-RHF Final Energy:  -115.06371022320513
    Total Energy =                       -115.0637102232051348
  Basis Set: (6-311G* AUX)
    Blend: CC-PVTZ-JKFIT
  Basis Set: 6-311G*
    Blend: 6-311G*
  Basis Set: (6-311G* AUX)
    Blend: CC-PVTZ-JKFIT
  @DF-RHF Final Energy:  -115.06371470314355
    Total Energy =                       -115.0637147031435461
  Basis Set: 6-311G*
    Blend: 6-311G*
  Basis Set: (6-311G* AUX)
    Blend: CC-PVTZ-JKFIT
  Charge       = 0
  Multiplicity = 1
  Basis Set: 6-311G*
    Blend: 6-311G*
  Basis Set: (6-311G* AUX)
    Blend: CC-PVTZ-JKFIT

    Orbital Energies [Eh]
    ---------------------

    Doubly Occupied:

       1A    -20.541661     2A    -11.264800     3A     -1.364464
       4A     -0.928359     5A     -0.697005     6A     -0.622295
       7A     -0.597335     8A     -0.498097     9A     -0.444927

  @DF-RHF Final Energy:  -115.06371472345118

   => Energetics <=

    Nuclear Repulsion Energy =             40.8527269678326803
    One-Electron Energy =                -237.9149932411942245
    Two-Electron Energy =                  81.9985515499103741
    Total Energy =                       -115.0637147234511843

  Dipole Moment: [D]
     X:    -1.0403      Y:    -1.4745      Z:    -0.6643     Total:     1.9229

    Molecular point group: c1
  Basis Set: 6-311G*
    Blend: 6-311G*
  Basis Set: (6-311G* AUX)
    Blend: CC-PVTZ-JKFIT

  -Total Gradient:
     Atom            X                  Y                   Z
    ------   -----------------  -----------------  -----------------
       1       -0.000006577856    -0.000001436882     0.000002402314
       2       -0.000001602057     0.000000595629    -0.000004924996
       3        0.000003552272    -0.000001160858     0.000001260753
       4        0.000004607800     0.000001024641     0.000001049092
       5       -0.000000182634     0.000000153086    -0.000000748356
       6        0.000000202474     0.000000824385     0.000000961193

  **** Optimization is complete! (in 8 steps) ****
    Final optimized geometry and variables:
    Molecular point group: c1

    Geometry (in Angstrom), charge = 0, multiplicity = 1:

    O            0.681118572470     0.030505894495     0.006062326037
    C           -0.716740086925     0.016153282258     0.015752980915
    H           -1.043536892634     0.950559283636     0.448300657404
    H           -1.110847510167    -0.798018860218     0.619069261639
    H           -1.129592336248    -0.061069337022    -0.987134328238
    H            1.008232144477    -0.767956134034    -0.364017149302

*** Psi4 exiting successfully. Buy a developer a beer!
