                               Psi4 1.3.2 release

  ==> Input File <==

--------------------------------------------------------------------------
molecule {
0 1
 O    0.689709    0.039228    0.006809
 C   -0.746502    0.015926    0.010811
 H   -1.088243   -1.007718   -0.164001
 H   -1.106282    0.699115   -0.763389
 H   -1.084103    0.354667    0.994747
 H    0.972163   -0.844063   -0.294633
}
set optking {
  frozen_dihedral = ("
  ")
}
memory 700MB
set_num_threads(1)
psi4_io.set_default_path("/scratch/bdw2292")
optimize('hf/6-311G*')
clean()
--------------------------------------------------------------------------

    Molecular point group: c1
  Charge       = 0
  Multiplicity = 1
  Basis Set: 6-311G*
    Blend: 6-311G*
  Basis Set: (6-311G* AUX)
    Blend: CC-PVTZ-JKFIT
  @DF-RHF Final Energy:  -115.05807720882304
    Total Energy =                       -115.0580772088230361
    Molecular point group: c1
  Basis Set: 6-311G*
    Blend: 6-311G*
  Basis Set: (6-311G* AUX)
    Blend: CC-PVTZ-JKFIT
  Basis Set: 6-311G*
    Blend: 6-311G*
  Basis Set: (6-311G* AUX)
    Blend: CC-PVTZ-JKFIT
  @DF-RHF Final Energy:  -115.06147235605542
    Total Energy =                       -115.0614723560554182
  Basis Set: 6-311G*
    Blend: 6-311G*
  Basis Set: (6-311G* AUX)
    Blend: CC-PVTZ-JKFIT
  Basis Set: 6-311G*
    Blend: 6-311G*
  @DF-RHF Final Energy:  -115.06214956823287
    Total Energy =                       -115.0621495682328685
  @DF-RHF Final Energy:  -115.06323543244369
    Total Energy =                       -115.0632354324436903
  @DF-RHF Final Energy:  -115.06362723406224
    Total Energy =                       -115.0636272340622384
  @DF-RHF Final Energy:  -115.06365291522435
    Total Energy =                       -115.0636529152243526
  @DF-RHF Final Energy:  -115.06348038521558
    Total Energy =                       -115.0634803852155841
  Basis Set: (6-311G* AUX)
    Blend: CC-PVTZ-JKFIT
  Basis Set: 6-311G*
    Blend: 6-311G*
  Basis Set: (6-311G* AUX)
    Blend: CC-PVTZ-JKFIT
  @DF-RHF Final Energy:  -115.06371456199516
    Total Energy =                       -115.0637145619951553
  Basis Set: 6-311G*
    Blend: 6-311G*
  Basis Set: (6-311G* AUX)
    Blend: CC-PVTZ-JKFIT
  Charge       = 0
  Multiplicity = 1
  Basis Set: 6-311G*
    Blend: 6-311G*
  Basis Set: (6-311G* AUX)
    Blend: CC-PVTZ-JKFIT

    Orbital Energies [Eh]
    ---------------------

    Doubly Occupied:

       1A    -20.541666     2A    -11.264803     3A     -1.364457
       4A     -0.928362     5A     -0.697004     6A     -0.622286
       7A     -0.597328     8A     -0.498104     9A     -0.444932

  @DF-RHF Final Energy:  -115.06371471425746

   => Energetics <=

    Nuclear Repulsion Energy =             40.8522269252760637
    One-Electron Energy =                -237.9139995948416129
    Two-Electron Energy =                  81.9980579553080986
    Total Energy =                       -115.0637147142574577

  Dipole Moment: [D]
     X:    -1.0319      Y:    -0.6142      Z:    -1.5019     Total:     1.9230

    Molecular point group: c1
  Basis Set: 6-311G*
    Blend: 6-311G*
  Basis Set: (6-311G* AUX)
    Blend: CC-PVTZ-JKFIT

  -Total Gradient:
     Atom            X                  Y                   Z
    ------   -----------------  -----------------  -----------------
       1        0.000026435022     0.000025927412    -0.000009601987
       2       -0.000009844976    -0.000043163644     0.000008079543
       3       -0.000025588999     0.000014366204    -0.000002046819
       4        0.000011725709     0.000000569382    -0.000001034450
       5       -0.000000216452     0.000001134096     0.000000142493
       6       -0.000002510305     0.000001166551     0.000004461220

  **** Optimization is complete! (in 9 steps) ****
    Final optimized geometry and variables:
    Molecular point group: c1

    Geometry (in Angstrom), charge = 0, multiplicity = 1:

    O            0.678798326458    -0.036529620696     0.053024173778
    C           -0.714458680443     0.061066319454    -0.007774286015
    H           -1.187490190186    -0.914497271751    -0.089617429192
    H           -1.042747730075     0.678976787378    -0.840001621696
    H           -1.043421700246     0.523749702787     0.911313683057
    H            1.007574697771    -0.435583833128    -0.730659656893

*** Psi4 exiting successfully. Buy a developer a beer!
