 Gaussian 09, Revision A.02,
 Gaussian 09:  EM64L-G09RevA.02 11-Jun-2009

 -------------------------------------------
 #P MP2/6-311G** Sp Density=MP2 MaxDisk=50GB
 -------------------------------------------

 ------------------------------------------------------------
 ModifiedRes Gaussian Optimization on bme-nova.bme.utexas.edu
 ------------------------------------------------------------
 Symbolic Z-matrix:
 Charge =  0 Multiplicity = 1

                         Standard orientation:
 ---------------------------------------------------------------------
 Center     Atomic      Atomic             Coordinates (Angstroms)
 Number     Number       Type             X           Y           Z
 ---------------------------------------------------------------------
      1          7           0        0.932536   -0.899942    0.745038
      2          1           0        0.546190   -0.877134    1.683345
      3          6           0        0.585752    0.167181   -0.187407
      4          1           0        0.701508   -0.252932   -1.192732
      5          6           0        1.538312    1.364379   -0.022511
      6          8           0        1.197465    2.384723    0.576751
      7          6           0       -0.844909    0.625602    0.031211
      8         16           0       -1.940748   -0.836431   -0.099232
      9          6           0       -3.423059   -0.010591   -0.128290
     10          7           0       -4.474923    0.537070   -0.150383
     11          1           0       -0.951417    1.098489    1.009115
     12          1           0       -1.115391    1.354023   -0.735305
     13          6           0        1.918163   -1.794929    0.462525
     14          8           0        2.578088   -1.790441   -0.579006
     15          7           0        2.752103    1.169457   -0.597556
     16          1           0        2.062271   -2.547720    1.253931
     17          1           0        3.018635    0.240610   -0.910834
     18          1           0        3.472185    1.857355   -0.414625
 ---------------------------------------------------------------------

 SCF Done:  E(RHF) =  -904.150803940     A.U. after   16 cycles
 E2 =    -0.1742224292D+01 EUMP2 =    -0.90589302823192D+03

 The electronic state is 1-A.
 Alpha  occ. eigenvalues --  -92.02507 -20.56220 -20.53925 -15.63616 -15.59458
 Alpha  occ. eigenvalues --  -15.59428 -11.39559 -11.37812 -11.32743 -11.31018
 Alpha  occ. eigenvalues --  -11.30795  -9.02704  -6.70958  -6.70771  -6.70616
 Alpha  occ. eigenvalues --   -1.41900  -1.39722  -1.28546  -1.22684  -1.22298
 Alpha  occ. eigenvalues --   -1.12527  -1.03663  -0.91387  -0.87443  -0.81569
 Alpha  occ. eigenvalues --   -0.76332  -0.75637  -0.71541  -0.69916  -0.67370
 Alpha  occ. eigenvalues --   -0.64263  -0.62416  -0.61999  -0.58892  -0.57889
 Alpha  occ. eigenvalues --   -0.56738  -0.56181  -0.53500  -0.51584  -0.47710
 Alpha  occ. eigenvalues --   -0.46834  -0.45599  -0.43125  -0.42224  -0.38763
 Alpha virt. eigenvalues --    0.10980   0.12130   0.13509   0.14885   0.15789
 Alpha virt. eigenvalues --    0.16227   0.17264   0.17645   0.17962   0.20444
 Alpha virt. eigenvalues --    0.21096   0.23403   0.25501   0.28412   0.29380

 Mulliken atomic charges:
              1
     1  N   -0.384190
     2  H    0.247585
     3  C   -0.172883
     4  H    0.181432
     5  C    0.402703
     6  O   -0.342258
     7  C   -0.339721
     8  S    0.271388
     9  C   -0.049663
    10  N   -0.233312
    11  H    0.180347
    12  H    0.185511
    13  C    0.280759
    14  O   -0.363123
    15  N   -0.442921
    16  H    0.098718
    17  H    0.249772
    18  H    0.229856
 Sum of Mulliken atomic charges =   0.00000

 Dipole moment (field-independent basis, Debye):
    X=              3.9596    Y=             -1.8226    Z=              1.4271  Tot=              4.5866
 Quadrupole moment (field-independent basis, Debye-Ang):
   XX=            -88.3802   YY=            -78.5790   ZZ=            -68.9496
   XY=              6.3944   XZ=              1.4720   YZ=             -7.3974

 Normal termination of Gaussian 09 at Sun Dec 29 21:48:27 2019.
