 Gaussian 09, Revision A.02,
 Gaussian 09:  EM64L-G09RevA.02 11-Jun-2009

 --------------------------------------------------------
 #P opt=(maxcycle=400) MP2/6-31G* Guess=INDO MaxDisk=50GB
 --------------------------------------------------------

 --------------------------------------------------------------
 ModifiedRes Gaussian SP Calculation on bme-nova.bme.utexas.edu
 --------------------------------------------------------------
 Symbolic Z-matrix:
 Charge =  0 Multiplicity = 1

 SCF Done:  E(RHF) =  -903.882704381     A.U. after   17 cycles
 E2 =    -0.1601734703D+01 EUMP2 =    -0.90548443908382D+03
 SCF Done:  E(RHF) =  -903.910969719     A.U. after   15 cycles
 E2 =    -0.1605409891D+01 EUMP2 =    -0.90551637960942D+03
 SCF Done:  E(RHF) =  -903.937956961     A.U. after   16 cycles
 E2 =    -0.1615065789D+01 EUMP2 =    -0.90555302274959D+03
 SCF Done:  E(RHF) =  -903.965706986     A.U. after   16 cycles
 E2 =    -0.1611454808D+01 EUMP2 =    -0.90557716179392D+03
 SCF Done:  E(RHF) =  -903.981299110     A.U. after   15 cycles
 E2 =    -0.1606151990D+01 EUMP2 =    -0.90558745109976D+03
 SCF Done:  E(RHF) =  -903.990043958     A.U. after   16 cycles
 E2 =    -0.1603068297D+01 EUMP2 =    -0.90559311225470D+03
 SCF Done:  E(RHF) =  -903.991723461     A.U. after   15 cycles
 E2 =    -0.1603252136D+01 EUMP2 =    -0.90559497559693D+03
 SCF Done:  E(RHF) =  -903.991313757     A.U. after   15 cycles
 E2 =    -0.1604676655D+01 EUMP2 =    -0.90559599041251D+03
 SCF Done:  E(RHF) =  -903.991137590     A.U. after   13 cycles
 E2 =    -0.1605177903D+01 EUMP2 =    -0.90559631549283D+03
 SCF Done:  E(RHF) =  -903.991718865     A.U. after   13 cycles
 E2 =    -0.1604832485D+01 EUMP2 =    -0.90559655134971D+03
 E2 =    -0.1604304596D+01 EUMP2 =    -0.90559668264970D+03
 E2 =    -0.1603806070D+01 EUMP2 =    -0.90559680037782D+03
 E2 =    -0.1603518781D+01 EUMP2 =    -0.90559690095253D+03
 E2 =    -0.1603311564D+01 EUMP2 =    -0.90559708907294D+03
 E2 =    -0.1603392446D+01 EUMP2 =    -0.90559720978570D+03
 E2 =    -0.1603537108D+01 EUMP2 =    -0.90559731546856D+03
 E2 =    -0.1603566877D+01 EUMP2 =    -0.90559740432555D+03
 E2 =    -0.1603432929D+01 EUMP2 =    -0.90559752650068D+03
 E2 =    -0.1603356214D+01 EUMP2 =    -0.90559762199840D+03
 E2 =    -0.1603287790D+01 EUMP2 =    -0.90559782230646D+03
 E2 =    -0.1603247288D+01 EUMP2 =    -0.90559797719907D+03
 E2 =    -0.1602950542D+01 EUMP2 =    -0.90559857088754D+03
 E2 =    -0.1602763545D+01 EUMP2 =    -0.90559757699661D+03
 E2 =    -0.1602797391D+01 EUMP2 =    -0.90559916584926D+03
 E2 =    -0.1602995365D+01 EUMP2 =    -0.90560025262017D+03
 E2 =    -0.1603897410D+01 EUMP2 =    -0.90560116712958D+03
 E2 =    -0.1604216752D+01 EUMP2 =    -0.90560219309469D+03
 E2 =    -0.1604092869D+01 EUMP2 =    -0.90560272750162D+03
 E2 =    -0.1604515378D+01 EUMP2 =    -0.90560284252145D+03
 E2 =    -0.1604252643D+01 EUMP2 =    -0.90560302922831D+03
 SCF Done:  E(RHF) =  -903.998710549     A.U. after   14 cycles
 E2 =    -0.1604351899D+01 EUMP2 =    -0.90560306244873D+03
 SCF Done:  E(RHF) =  -903.998902498     A.U. after   13 cycles
 E2 =    -0.1604334926D+01 EUMP2 =    -0.90560323742352D+03
 SCF Done:  E(RHF) =  -903.999067415     A.U. after   13 cycles
 E2 =    -0.1604275244D+01 EUMP2 =    -0.90560334265906D+03
 SCF Done:  E(RHF) =  -903.999270073     A.U. after   13 cycles
 E2 =    -0.1604225749D+01 EUMP2 =    -0.90560349582181D+03
 SCF Done:  E(RHF) =  -903.999252154     A.U. after   12 cycles
 E2 =    -0.1604296489D+01 EUMP2 =    -0.90560354864302D+03
 SCF Done:  E(RHF) =  -903.999242969     A.U. after   12 cycles
 E2 =    -0.1604327018D+01 EUMP2 =    -0.90560356998731D+03
 SCF Done:  E(RHF) =  -903.999225846     A.U. after   12 cycles
 E2 =    -0.1604348489D+01 EUMP2 =    -0.90560357433460D+03
 SCF Done:  E(RHF) =  -903.999206358     A.U. after   11 cycles
 E2 =    -0.1604369773D+01 EUMP2 =    -0.90560357613094D+03
 SCF Done:  E(RHF) =  -903.999197364     A.U. after   11 cycles
 E2 =    -0.1604379203D+01 EUMP2 =    -0.90560357656693D+03
 SCF Done:  E(RHF) =  -903.999190441     A.U. after   10 cycles
 E2 =    -0.1604386297D+01 EUMP2 =    -0.90560357673843D+03
 Optimization completed.
    -- Stationary point found.

                         Standard orientation:
 ---------------------------------------------------------------------
 Center     Atomic      Atomic             Coordinates (Angstroms)
 Number     Number       Type             X           Y           Z
 ---------------------------------------------------------------------
      1          7           0        0.932536   -0.899942    0.745038
      2          1           0        0.546190   -0.877134    1.683345
      3          6           0        0.585752    0.167181   -0.187407
      4          1           0        0.701508   -0.252932   -1.192732
      5          6           0        1.538312    1.364379   -0.022511
      6          8           0        1.197465    2.384723    0.576751
      7          6           0       -0.844909    0.625602    0.031211
      8         16           0       -1.940748   -0.836431   -0.099232
      9          6           0       -3.423059   -0.010591   -0.128290
     10          7           0       -4.474923    0.537070   -0.150383
     11          1           0       -0.951417    1.098489    1.009115
     12          1           0       -1.115391    1.354023   -0.735305
     13          6           0        1.918163   -1.794929    0.462525
     14          8           0        2.578088   -1.790441   -0.579006
     15          7           0        2.752103    1.169457   -0.597556
     16          1           0        2.062271   -2.547720    1.253931
     17          1           0        3.018635    0.240610   -0.910834
     18          1           0        3.472185    1.857355   -0.414625
 ---------------------------------------------------------------------

 The electronic state is 1-A.
 Alpha  occ. eigenvalues --  -92.01425 -20.57521 -20.54994 -15.64344 -15.60283
 Alpha  occ. eigenvalues --  -15.60118 -11.39817 -11.37907 -11.32648 -11.31395
 Alpha  occ. eigenvalues --  -11.30704  -9.02349  -6.70657  -6.70462  -6.70261
 Alpha  occ. eigenvalues --   -1.41717  -1.39411  -1.28388  -1.22461  -1.22019
 Alpha  occ. eigenvalues --   -1.12391  -1.03482  -0.91245  -0.87300  -0.81383
 Alpha  occ. eigenvalues --   -0.76155  -0.75422  -0.71352  -0.69733  -0.67070
 Alpha  occ. eigenvalues --   -0.64018  -0.62203  -0.61675  -0.58666  -0.57690
 Alpha  occ. eigenvalues --   -0.56466  -0.55854  -0.53286  -0.51319  -0.47387
 Alpha  occ. eigenvalues --   -0.46501  -0.45317  -0.42705  -0.41855  -0.38531
 Alpha virt. eigenvalues --    0.12124   0.14475   0.16569   0.18167   0.19720
 Alpha virt. eigenvalues --    0.20646   0.21938   0.22912   0.24045   0.26677
 Alpha virt. eigenvalues --    0.27545   0.29283   0.32761   0.34354   0.37464

 Mulliken atomic charges:
              1
     1  N   -0.772943
     2  H    0.412965
     3  C   -0.096198
     4  H    0.258125
     5  C    0.781120
     6  O   -0.619531
     7  C   -0.497399
     8  S    0.296587
     9  C    0.083048
    10  N   -0.384082
    11  H    0.251165
    12  H    0.252945
    13  C    0.528831
    14  O   -0.602753
    15  N   -0.939340
    16  H    0.195880
    17  H    0.451752
    18  H    0.399827
 Sum of Mulliken atomic charges =   0.00000

 Dipole moment (field-independent basis, Debye):
    X=              4.0765    Y=             -2.4890    Z=              1.7334  Tot=              5.0811
 Quadrupole moment (field-independent basis, Debye-Ang):
   XX=            -90.4711   YY=            -79.4641   ZZ=            -68.1481
   XY=              5.7936   XZ=              2.4779   YZ=             -8.9216

 Normal termination of Gaussian 09 at Sun Dec 29 21:44:57 2019.
