 Gaussian 09, Revision A.02,
 Gaussian 09:  EM64L-G09RevA.02 11-Jun-2009

 ----------------------------------------------------------------------
 #P MP2/6-311++G(2d,2p) Sp Density=MP2 SCF=Save Guess=Huckel MaxDisk=50
 GB
 ----------------------------------------------------------------------

 ------------------------------------------------------------
 ModifiedRes Gaussian Optimization on bme-nova.bme.utexas.edu
 ------------------------------------------------------------
 Symbolic Z-matrix:
 Charge =  0 Multiplicity = 1

                         Standard orientation:
 ---------------------------------------------------------------------
 Center     Atomic      Atomic             Coordinates (Angstroms)
 Number     Number       Type             X           Y           Z
 ---------------------------------------------------------------------
      1          7           0        0.932536   -0.899942    0.745038
      2          1           0        0.546190   -0.877134    1.683345
      3          6           0        0.585752    0.167181   -0.187407
      4          1           0        0.701508   -0.252932   -1.192732
      5          6           0        1.538312    1.364379   -0.022511
      6          8           0        1.197465    2.384723    0.576751
      7          6           0       -0.844909    0.625602    0.031211
      8         16           0       -1.940748   -0.836431   -0.099232
      9          6           0       -3.423059   -0.010591   -0.128290
     10          7           0       -4.474923    0.537070   -0.150383
     11          1           0       -0.951417    1.098489    1.009115
     12          1           0       -1.115391    1.354023   -0.735305
     13          6           0        1.918163   -1.794929    0.462525
     14          8           0        2.578088   -1.790441   -0.579006
     15          7           0        2.752103    1.169457   -0.597556
     16          1           0        2.062271   -2.547720    1.253931
     17          1           0        3.018635    0.240610   -0.910834
     18          1           0        3.472185    1.857355   -0.414625
 ---------------------------------------------------------------------

 SCF Done:  E(RHF) =  -904.184053968     A.U. after   18 cycles
 E2 =    -0.1865922445D+01 EUMP2 =    -0.90604997641253D+03

 The electronic state is 1-A.
 Alpha  occ. eigenvalues --  -92.02892 -20.57017 -20.54894 -15.64077 -15.60131
 Alpha  occ. eigenvalues --  -15.59758 -11.39821 -11.38257 -11.32967 -11.31363
 Alpha  occ. eigenvalues --  -11.30881  -9.02999  -6.71269  -6.71087  -6.70922
 Alpha  occ. eigenvalues --   -1.42288  -1.40226  -1.28914  -1.23201  -1.22431
 Alpha  occ. eigenvalues --   -1.12723  -1.03909  -0.91620  -0.87828  -0.81977
 Alpha  occ. eigenvalues --   -0.76682  -0.76047  -0.71917  -0.70283  -0.67784
 Alpha  occ. eigenvalues --   -0.64704  -0.62752  -0.62450  -0.59208  -0.58202
 Alpha  occ. eigenvalues --   -0.57089  -0.56497  -0.53756  -0.51708  -0.48142
 Alpha  occ. eigenvalues --   -0.47276  -0.45841  -0.43587  -0.42653  -0.39015
 Alpha virt. eigenvalues --    0.02602   0.04230   0.05115   0.05399   0.06975
 Alpha virt. eigenvalues --    0.07522   0.08457   0.08764   0.09399   0.10574
 Alpha virt. eigenvalues --    0.10679   0.11696   0.12484   0.12763   0.13233

 Mulliken atomic charges:
              1
     1  N   -0.107879
     2  H    0.182566
     3  C   -0.255556
     4  H    0.135625
     5  C    0.317922
     6  O   -0.481035
     7  C    0.127971
     8  S   -0.090515
     9  C    0.002597
    10  N   -0.189835
    11  H    0.126887
    12  H    0.115434
    13  C    0.336985
    14  O   -0.455238
    15  N   -0.259407
    16  H    0.088883
    17  H    0.191322
    18  H    0.213274
 Sum of Mulliken atomic charges =   0.00000

 Dipole moment (field-independent basis, Debye):
    X=              3.9917    Y=             -1.9703    Z=              1.3513  Tot=              4.6521
 Quadrupole moment (field-independent basis, Debye-Ang):
   XX=            -90.8911   YY=            -79.9308   ZZ=            -69.9218
   XY=              6.8012   XZ=              1.3749   YZ=             -7.7575

 Normal termination of Gaussian 09 at Mon Dec 30 09:38:51 2019.
