                               Psi4 1.3.2 release

  ==> Input File <==

--------------------------------------------------------------------------
molecule {
0 1
N           -0.022967689517    -0.011930090337     0.063857632847
H           -0.336675337392     0.884093204260    -0.300264078375
H           -0.336661847712    -0.716065413442    -0.599196935949
H            0.992458308051    -0.002266936967     0.012200696405
}
memory 700MB
set_num_threads(1)
psi4_io.set_default_path("/scratch/bdw2292")
set freeze_core True
E, wfn = energy('mp2/6-311G**',return_wfn=True)
gdma(wfn)
fchk(wfn, "ammonia-dma.fchk")
clean()
--------------------------------------------------------------------------

    Molecular point group: c1

    Geometry (in Angstrom), charge = 0, multiplicity = 1:

       Center              X                  Y                   Z               Mass
    ------------   -----------------  -----------------  -----------------  -----------------
         N           -0.022967689517    -0.011930090337     0.063857632847    14.003074004430
         H           -0.336675337392     0.884093204260    -0.300264078375     1.007825032230
         H           -0.336661847712    -0.716065413442    -0.599196935949     1.007825032230
         H            0.992458308051    -0.002266936967     0.012200696405     1.007825032230

  Charge       = 0
  Multiplicity = 1
  Basis Set: 6-311G**
    Blend: 6-311G**
  Basis Set: (6-311G** AUX)
    Blend: CC-PVTZ-JKFIT

    Orbital Energies [Eh]
    ---------------------

    Doubly Occupied:

       1A    -15.530467     2A     -1.133946     3A     -0.619712
       4A     -0.619711     5A     -0.423867

  @DF-RHF Final Energy:   -56.20976615729548

   => Energetics <=

    Nuclear Repulsion Energy =             11.9045045685486244
    One-Electron Energy =                 -99.5731359047883160
    Two-Electron Energy =                  31.4588651789442046
    Total Energy =                        -56.2097661572954763

  Dipole Moment: [D]
     X:     0.5953      Y:     0.3092      Z:    -1.6552     Total:     1.7860

  Basis Set: (6-311G** AUX)
    Blend: CC-PVTZ-RI
	 Reference Energy          =     -56.2097661572954834 [Eh]
	 Singles Energy            =      -0.0000000000000000 [Eh]
	 Same-Spin Energy          =      -0.0453213009034354 [Eh]
	 Opposite-Spin Energy      =      -0.1536418547804277 [Eh]
	 Correlation Energy        =      -0.1989631556838631 [Eh]
	 Total Energy              =     -56.4087293129793466 [Eh]

	 ================> DF-SCS-MP2 Energies <==================
	-----------------------------------------------------------
	 SCS Same-Spin Scale       =       0.3333333333333333 [-]
	 SCS Opposite-Spin Scale   =       1.2000000000000000 [-]
	 SCS Same-Spin Energy      =      -0.0151071003011451 [Eh]
	 SCS Opposite-Spin Energy  =      -0.1843702257365133 [Eh]
	 SCS Correlation Energy    =      -0.1994773260376584 [Eh]
	 SCS Total Energy          =     -56.4092434833331424 [Eh]
	-----------------------------------------------------------

*** Psi4 exiting successfully. Buy a developer a beer!
