                               Psi4 1.3.2 release

  ==> Input File <==

--------------------------------------------------------------------------
molecule {
0 1
N           -0.022967689517    -0.011930090337     0.063857632847
H           -0.336675337392     0.884093204260    -0.300264078375
H           -0.336661847712    -0.716065413442    -0.599196935949
H            0.992458308051    -0.002266936967     0.012200696405
}
memory 700MB
set_num_threads(1)
psi4_io.set_default_path("/scratch/bdw2292")
set freeze_core True
E, wfn = energy('mp2/6-311++G(2d,2p)',return_wfn=True)
oeprop(wfn,"DIPOLE","GRID_ESP")
clean()
--------------------------------------------------------------------------

    Molecular point group: c1

    Geometry (in Angstrom), charge = 0, multiplicity = 1:

       Center              X                  Y                   Z               Mass
    ------------   -----------------  -----------------  -----------------  -----------------
         N           -0.022967689517    -0.011930090337     0.063857632847    14.003074004430
         H           -0.336675337392     0.884093204260    -0.300264078375     1.007825032230
         H           -0.336661847712    -0.716065413442    -0.599196935949     1.007825032230
         H            0.992458308051    -0.002266936967     0.012200696405     1.007825032230

  Charge       = 0
  Multiplicity = 1
  Basis Set: 6-311++G(2D,2P)
    Blend: 6-311++G(2D,2P)
  Basis Set: (6-311++G(2D,2P) AUX)
    Blend: AUG-CC-PVTZ-JKFIT

    Orbital Energies [Eh]
    ---------------------

    Doubly Occupied:

       1A    -15.542232     2A     -1.141114     3A     -0.627076
       4A     -0.627075     5A     -0.429998

  @DF-RHF Final Energy:   -56.21731117341872

   => Energetics <=

    Nuclear Repulsion Energy =             11.9045045685486244
    One-Electron Energy =                 -99.5086421835261490
    Two-Electron Energy =                  31.3868264415588065
    Total Energy =                        -56.2173111734187216
  Basis Set: (6-311++G(2D,2P) AUX)
    Blend: AUG-CC-PVTZ-RI
	 Reference Energy          =     -56.2173111734187216 [Eh]
	 Singles Energy            =      -0.0000000000000000 [Eh]
	 Same-Spin Energy          =      -0.0495096700068029 [Eh]
	 Opposite-Spin Energy      =      -0.1665423182741015 [Eh]
	 Correlation Energy        =      -0.2160519882809043 [Eh]
	 Total Energy              =     -56.4333631616996243 [Eh]

	 ================> DF-SCS-MP2 Energies <==================
	-----------------------------------------------------------
	 SCS Same-Spin Scale       =       0.3333333333333333 [-]
	 SCS Opposite-Spin Scale   =       1.2000000000000000 [-]
	 SCS Same-Spin Energy      =      -0.0165032233356010 [Eh]
	 SCS Opposite-Spin Energy  =      -0.1998507819289218 [Eh]
	 SCS Correlation Energy    =      -0.2163540052645227 [Eh]
	 SCS Total Energy          =     -56.4336651786832419 [Eh]
	-----------------------------------------------------------

  Dipole Moment: [D]
     X:     0.5658      Y:     0.2939      Z:    -1.5732     Total:     1.6975

*** Psi4 exiting successfully. Buy a developer a beer!
