                               Psi4 1.3.2 release

  ==> Input File <==

--------------------------------------------------------------------------
molecule {
0 1
 N    0.904400    0.008800    0.092500
 H    0.592800    0.905700   -0.277200
 H    0.592800   -0.694200   -0.576100
 H    1.921700    0.019500    0.035200
}
memory 700MB
set_num_threads(1)
psi4_io.set_default_path("/scratch/bdw2292")
optimize('mp2/6-31G*')
clean()
--------------------------------------------------------------------------

    Molecular point group: c1
  Charge       = 0
  Multiplicity = 1
  Basis Set: 6-31G*
    Blend: 6-31G*
  Basis Set: (6-31G* AUX)
    Blend: CC-PVDZ-JKFIT
  @DF-RHF Final Energy:   -56.18364975982125
    Total Energy =                        -56.1836497598212503
  Basis Set: (6-31G* AUX)
    Blend: CC-PVDZ-RI
    Molecular point group: c1
  Basis Set: 6-31G*
    Blend: 6-31G*
  Basis Set: (6-31G* AUX)
    Blend: CC-PVDZ-JKFIT
  Basis Set: (6-31G* AUX)
    Blend: CC-PVDZ-JKFIT
	 Reference Energy          =     -56.1836497598212503 [Eh]
	 Singles Energy            =      -0.0000000000000000 [Eh]
	 Same-Spin Energy          =      -0.0403845963255647 [Eh]
	 Opposite-Spin Energy      =      -0.1332661936354705 [Eh]
	 Correlation Energy        =      -0.1736507899610352 [Eh]
	 Total Energy              =     -56.3573005497822876 [Eh]
	 SCS Total Energy          =     -56.3570307242923363 [Eh]
  @DF-RHF Final Energy:   -56.18379444802694
    Total Energy =                        -56.1837944480269442
  Charge       = 0
  Multiplicity = 1
  Basis Set: 6-31G*
    Blend: 6-31G*
  Basis Set: (6-31G* AUX)
    Blend: CC-PVDZ-JKFIT

    Orbital Energies [Eh]
    ---------------------

    Doubly Occupied:

       1A    -15.540284     2A     -1.134632     3A     -0.620754
       4A     -0.620753     5A     -0.422022

  @DF-RHF Final Energy:   -56.18382785446794

   => Energetics <=

    Nuclear Repulsion Energy =             11.9045045685521504
    One-Electron Energy =                 -99.4997726200781898
    Two-Electron Energy =                  31.4114401970581021
    Total Energy =                        -56.1838278544679355

  Dipole Moment: [D]
     X:     0.6563      Y:     0.3409      Z:    -1.8248     Total:     1.9690

  Basis Set: (6-31G* AUX)
    Blend: CC-PVDZ-RI
    Molecular point group: c1
  Basis Set: 6-31G*
    Blend: 6-31G*
  Basis Set: (6-31G* AUX)
    Blend: CC-PVDZ-JKFIT
  Basis Set: (6-31G* AUX)
    Blend: CC-PVDZ-JKFIT
	 Reference Energy          =     -56.1838278544679355 [Eh]
	 Singles Energy            =      -0.0000000000000000 [Eh]
	 Same-Spin Energy          =      -0.0403728558622683 [Eh]
	 Opposite-Spin Energy      =      -0.1331144451126478 [Eh]
	 Correlation Energy        =      -0.1734873009749162 [Eh]
	 Total Energy              =     -56.3573151554428549 [Eh]

	 ================> DF-SCS-MP2 Energies <==================
	-----------------------------------------------------------
	 SCS Same-Spin Scale       =       0.3333333333333333 [-]
	 SCS Opposite-Spin Scale   =       1.2000000000000000 [-]
	 SCS Same-Spin Energy      =      -0.0134576186207561 [Eh]
	 SCS Opposite-Spin Energy  =      -0.1597373341351774 [Eh]
	 SCS Correlation Energy    =      -0.1731949527559335 [Eh]
	 SCS Total Energy          =     -56.3570228072238706 [Eh]
	-----------------------------------------------------------

  -Total Gradient:
     Atom            X                  Y                   Z
    ------   -----------------  -----------------  -----------------
       1        0.000003021553    -0.000000402565    -0.000006306321
       2       -0.000010334962     0.000018174445     0.000001597911
       3       -0.000010589863    -0.000016640201    -0.000004198459
       4        0.000017903272    -0.000001131679     0.000008906868

  **** Optimization is complete! (in 3 steps) ****
    Final optimized geometry and variables:
    Molecular point group: c1

    Geometry (in Angstrom), charge = 0, multiplicity = 1:

    N           -0.022967689517    -0.011930090337     0.063857632847
    H           -0.336675337392     0.884093204260    -0.300264078375
    H           -0.336661847712    -0.716065413442    -0.599196935949
    H            0.992458308051    -0.002266936967     0.012200696405

*** Psi4 exiting successfully. Buy a developer a beer!
