 Gaussian 09, Revision A.02,
 Gaussian 09:  EM64L-G09RevA.02 11-Jun-2009

 ----------------------------------------------------------------------
 #P opt=(maxcycle=500) HF/6-311G* freq Guess=INDO MaxDisk=20GB SCRF=(PC
 M)
 ----------------------------------------------------------------------

 --------------------------------------------------------------
 methylamine Gaussian SP Calculation on bme-nova.bme.utexas.edu
 --------------------------------------------------------------
 Symbolic Z-matrix:
 Charge =  0 Multiplicity = 1

 SCF Done:  E(RHF) =  -95.2349032447     A.U. after   12 cycles
 SCF Done:  E(RHF) =  -95.2366031967     A.U. after   10 cycles
 SCF Done:  E(RHF) =  -95.2367260668     A.U. after    9 cycles
 SCF Done:  E(RHF) =  -95.2367282154     A.U. after    8 cycles
 Optimization completed.
    -- Stationary point found.
 Normal termination of Gaussian 09 at Fri Dec 20 14:50:55 2019.

 ------------------------------------------------------------------
 #P Geom=AllCheck Guess=TCheck SCRF=Check GenChk RHF/6-311G(d) Freq
 ------------------------------------------------------------------

 methylamine Gaussian SP Calculation on bme-nova.bme.utexas.edu
 --------------------------------------------------------------
 Redundant internal coordinates taken from checkpoint file:
 methylamine-opt.chk
 Charge =  0 Multiplicity = 1

                         Standard orientation:
 ---------------------------------------------------------------------
 Center     Atomic      Atomic             Coordinates (Angstroms)
 Number     Number       Type             X           Y           Z
 ---------------------------------------------------------------------
      1          7           0        0.747683    0.000000   -0.124847
      2          6           0       -0.702951    0.000000    0.016393
      3          1           0       -1.050254   -0.000037    1.048304
      4          1           0       -1.113847   -0.874238   -0.474910
      5          1           0       -1.113839    0.874278   -0.474844
      6          1           0        1.130932   -0.798311    0.338513
      7          1           0        1.130931    0.798311    0.338514
 ---------------------------------------------------------------------

 SCF Done:  E(RHF) =  -95.2367282154     A.U. after    1 cycles

 The electronic state is 1-A.
 Alpha  occ. eigenvalues --  -15.52833 -11.23501  -1.17376  -0.89667  -0.66575
 Alpha  occ. eigenvalues --   -0.60409  -0.55681  -0.51771  -0.39331
 Alpha virt. eigenvalues --    0.16186   0.19833   0.21538   0.23722   0.26411
 Alpha virt. eigenvalues --    0.37864   0.47595   0.48660   0.55470   0.56984
 Alpha virt. eigenvalues --    0.71521   0.77120   0.81612   0.81904   0.85831

 Mulliken atomic charges:
              1
     1  N   -0.863212
     2  C   -0.428923
     3  H    0.190068
     4  H    0.207056
     5  H    0.207057
     6  H    0.343976
     7  H    0.343976
 Sum of Mulliken atomic charges =   0.00000

 Dipole moment (field-independent basis, Debye):
    X=             -0.3463    Y=              0.0000    Z=              1.7940  Tot=              1.8271
 Quadrupole moment (field-independent basis, Debye-Ang):
   XX=            -13.8367   YY=            -12.4325   ZZ=            -15.2979
   XY=              0.0000   XZ=              2.2780   YZ=              0.0000

  Exact polarizability:  23.429   0.000  22.831   0.690   0.000  19.935
 Approx polarizability:  15.509   0.000  16.338   0.422   0.000  14.180

                     1                      2                      3
                     A                      A                      A
 Frequencies --   334.7754               981.1322              1056.1842
 Red. masses --     1.0305                 1.1495                 1.0510
 Frc consts  --     0.0680                 0.6520                 0.6907
 IR Inten    --    64.2878               216.5914                 0.0690
 Raman Activ --     1.9751                 4.4053                 0.2648

                     4                      5                      6
                     A                      A                      A
 Frequencies --  1131.4114              1301.2959              1480.3611
 Red. masses --     4.0886                 1.3798                 1.3357
 Frc consts  --     3.0837                 1.3766                 1.7247
 IR Inten    --    26.2991                39.8115                 0.2318
 Raman Activ --    18.9035                 3.1832                 4.5328

                     7                      8                      9
                     A                      A                      A
 Frequencies --  1589.2332              1625.2380              1644.6197
 Red. masses --     1.1776                 1.0540                 1.0345
 Frc consts  --     1.7524                 1.6403                 1.6486
 IR Inten    --     3.6150                 7.2092                 5.0384
 Raman Activ --     5.9691                25.2148                27.3670

                    10                     11                     12
                     A                      A                      A
 Frequencies --  1843.3609              3146.9882              3215.3818
 Red. masses --     1.0873                 1.0532                 1.0827
 Frc consts  --     2.1768                 6.1456                 6.5952
 IR Inten    --    54.0662               123.3441                95.5645
 Raman Activ --     9.3956               223.6465               164.3301

                    13                     14                     15
                     A                      A                      A
 Frequencies --  3246.0183              3738.7302              3803.5424
 Red. masses --     1.1050                 1.0514                 1.0930
 Frc consts  --     6.8601                 8.6586                 9.3160
 IR Inten    --    91.0967                 0.8388                 0.2671
 Raman Activ --   140.5431               153.0270               106.8226

 - Thermochemistry -
 -------------------
 Temperature   298.150 Kelvin.  Pressure   1.00000 Atm.
 Atom     1 has atomic number  7 and mass  14.00307

 Molecular mass:    31.04220 amu.
 Principal axes and moments of inertia in atomic units:
                           1         2         3
     Eigenvalues --    17.11953  78.24479  81.30314
           X            0.99926   0.00000   0.03854
           Y            0.00000   1.00000   0.00000
           Z           -0.03854   0.00000   0.99926
 This molecule is an asymmetric top.
 Rotational symmetry number  1.
 Rotational temperatures (Kelvin)      5.05936     1.10696     1.06532
 Rotational constants (GHZ):         105.42002    23.06532    22.19768
 Zero-point vibrational energy     180266.9 (Joules/Mol)
                                   43.08482 (Kcal/Mol)
 Warning -- explicit consideration of   1 degrees of freedom as
           vibrations may cause significant error
 Vibrational temperatures:    481.67  1411.63  1519.61  1627.85  1872.27
          (Kelvin)           2129.91  2286.55  2338.35  2366.24  2652.18
                             4527.81  4626.21  4670.29  5379.19  5472.44

 Zero-point correction=                           0.068660 (Hartree/Particle)
 Thermal correction to Energy=                    0.071989
 Thermal correction to Enthalpy=                  0.072933
 Thermal correction to Gibbs Free Energy=         0.045808
 Sum of electronic and zero-point Energies=            -95.168068
 Sum of electronic and thermal Energies=               -95.164739
 Sum of electronic and thermal Enthalpies=             -95.163795
 Sum of electronic and thermal Free Energies=          -95.190920

                     E (Thermal)             CV                S
                      KCal/Mol        Cal/Mol-Kelvin    Cal/Mol-Kelvin
 Total                   45.174              8.937             57.089
 Electronic               0.000              0.000              0.000
 Translational            0.889              2.981             36.231
 Rotational               0.889              2.981             19.327
 Vibrational             43.396              2.975              1.531
 Vibration     1          0.716              1.606              1.237

 Optimization completed.
    -- Stationary point found.
 Normal termination of Gaussian 09 at Fri Dec 20 14:51:08 2019.
