 Gaussian 09, Revision A.02,
 Gaussian 09:  EM64L-G09RevA.02 11-Jun-2009

 -------------------------------------------
 #P MP2/6-311G** Sp Density=MP2 MaxDisk=20GB
 -------------------------------------------

 ------------------------------------------------------------
 methylamine Gaussian Optimization on bme-nova.bme.utexas.edu
 ------------------------------------------------------------
 Symbolic Z-matrix:
 Charge =  0 Multiplicity = 1

                         Standard orientation:
 ---------------------------------------------------------------------
 Center     Atomic      Atomic             Coordinates (Angstroms)
 Number     Number       Type             X           Y           Z
 ---------------------------------------------------------------------
      1          7           0        0.747683    0.000000   -0.124847
      2          6           0       -0.702951    0.000000    0.016393
      3          1           0       -1.050254   -0.000037    1.048304
      4          1           0       -1.113847   -0.874238   -0.474910
      5          1           0       -1.113839    0.874278   -0.474844
      6          1           0        1.130932   -0.798311    0.338513
      7          1           0        1.130931    0.798311    0.338514
 ---------------------------------------------------------------------

 SCF Done:  E(RHF) =  -95.2424268816     A.U. after   11 cycles
 E2 =    -0.3444173643D+00 EUMP2 =    -0.95586844245909D+02

 The electronic state is 1-A.
 Alpha  occ. eigenvalues --  -15.52566 -11.23631  -1.17143  -0.89657  -0.66315
 Alpha  occ. eigenvalues --   -0.60249  -0.55566  -0.51699  -0.38817
 Alpha virt. eigenvalues --    0.15765   0.19447   0.21079   0.23247   0.25894
 Alpha virt. eigenvalues --    0.37748   0.46648   0.48335   0.55274   0.56455
 Alpha virt. eigenvalues --    0.71209   0.76751   0.81131   0.81332   0.85105

 Mulliken atomic charges:
              1
     1  N   -0.473273
     2  C   -0.179768
     3  H    0.079368
     4  H    0.103748
     5  H    0.103748
     6  H    0.183088
     7  H    0.183088
 Sum of Mulliken atomic charges =   0.00000

 Dipole moment (field-independent basis, Debye):
    X=             -0.2513    Y=              0.0000    Z=              1.4104  Tot=              1.4326
 Quadrupole moment (field-independent basis, Debye-Ang):
   XX=            -13.9355   YY=            -12.7040   ZZ=            -15.3160
   XY=              0.0000   XZ=              2.0588   YZ=              0.0000

 Normal termination of Gaussian 09 at Fri Dec 20 14:51:17 2019.
