 Gaussian 09, Revision A.02,
 Gaussian 09:  EM64L-G09RevA.02 11-Jun-2009

 ----------------------------------------------------------------------
 #P MP2/6-311++G(2d,2p) Sp Density=MP2 SCF=Save Guess=Huckel MaxDisk=20
 GB
 ----------------------------------------------------------------------

 --------------------------------------------------------------
 methylamine Gaussian SP Calculation on bme-nova.bme.utexas.edu
 --------------------------------------------------------------
 Symbolic Z-matrix:
 Charge =  0 Multiplicity = 1

                         Standard orientation:
 ---------------------------------------------------------------------
 Center     Atomic      Atomic             Coordinates (Angstroms)
 Number     Number       Type             X           Y           Z
 ---------------------------------------------------------------------
      1          7           0        0.747683    0.000000   -0.124847
      2          6           0       -0.702951    0.000000    0.016393
      3          1           0       -1.050254   -0.000037    1.048304
      4          1           0       -1.113847   -0.874238   -0.474910
      5          1           0       -1.113839    0.874278   -0.474844
      6          1           0        1.130932   -0.798311    0.338513
      7          1           0        1.130931    0.798311    0.338514
 ---------------------------------------------------------------------

 SCF Done:  E(RHF) =  -95.2510134578     A.U. after   12 cycles
 E2 =    -0.3695468349D+00 EUMP2 =    -0.95620560292713D+02

 The electronic state is 1-A.
 Alpha  occ. eigenvalues --  -15.53499 -11.23742  -1.17642  -0.89916  -0.66798
 Alpha  occ. eigenvalues --   -0.60625  -0.55928  -0.51968  -0.39206
 Alpha virt. eigenvalues --    0.04009   0.06196   0.06627   0.07573   0.09844
 Alpha virt. eigenvalues --    0.12621   0.16039   0.16044   0.18508   0.21386
 Alpha virt. eigenvalues --    0.24070   0.24872   0.29763   0.30247   0.31370

 Mulliken atomic charges:
              1
     1  N   -0.338920
     2  C   -0.150672
     3  H    0.053154
     4  H    0.076006
     5  H    0.076004
     6  H    0.142214
     7  H    0.142214
 Sum of Mulliken atomic charges =   0.00000

 Dipole moment (field-independent basis, Debye):
    X=             -0.3471    Y=              0.0000    Z=              1.4055  Tot=              1.4478
 Quadrupole moment (field-independent basis, Debye-Ang):
   XX=            -14.3608   YY=            -12.8345   ZZ=            -15.7703
   XY=              0.0000   XZ=              2.1751   YZ=              0.0000

 Normal termination of Gaussian 09 at Fri Dec 20 14:51:28 2019.
