                               Psi4 1.3.2 release

  ==> Input File <==

--------------------------------------------------------------------------
molecule {
0 1
O            0.696446585262     0.040745448724     0.013948831755
C           -0.732830942368     0.010016229128     0.003248984518
H           -1.129447483355    -0.748003894317     0.686523598049
H           -1.129102562542    -0.176196635248    -1.000274768364
H           -1.067929757844     0.992188032413     0.336122956058
H            0.999059582043    -0.833908866500    -0.282434970113
}
set {
 basis 6-311++G(2d,2p)
 e_convergence 10
 d_convergence 10
 scf_type pk
 pcm true
  pcm_scf_type total
}
pcm = {
 Units = Angstrom
 Medium {
 SolverType = IEFPCM
 Solvent = Water
 }
 Cavity {
 RadiiSet = UFF
 Type = GePol
 Scaling = False
 Area = 0.3
 Mode = Implicit
 }
}
memory 700MB
set_num_threads(1)
psi4_io.set_default_path("/scratch/bdw2292")
set freeze_core True
E, wfn = energy('mp2/6-311++G(2d,2p)',return_wfn=True)
oeprop(wfn,"DIPOLE","GRID_ESP")
clean()
--------------------------------------------------------------------------

    Molecular point group: c1

    Geometry (in Angstrom), charge = 0, multiplicity = 1:

       Center              X                  Y                   Z               Mass
    ------------   -----------------  -----------------  -----------------  -----------------
         O            0.696446585262     0.040745448724     0.013948831755    15.994914619570
         C           -0.732830942368     0.010016229128     0.003248984518    12.000000000000
         H           -1.129447483355    -0.748003894317     0.686523598049     1.007825032230
         H           -1.129102562542    -0.176196635248    -1.000274768364     1.007825032230
         H           -1.067929757844     0.992188032413     0.336122956058     1.007825032230
         H            0.999059582043    -0.833908866500    -0.282434970113     1.007825032230

  Charge       = 0
  Multiplicity = 1
  Basis Set: 6-311++G(2D,2P)
    Blend: 6-311++G(2D,2P)

    Orbital Energies [Eh]
    ---------------------

    Doubly Occupied:

       1A    -20.565652     2A    -11.268123     3A     -1.358750
       4A     -0.922076     5A     -0.690851     6A     -0.618456
       7A     -0.593882     8A     -0.508273     9A     -0.455134

  @RHF Final Energy:  -115.09150427997780

   => Energetics <=

    Nuclear Repulsion Energy =             40.1166306242974002
    One-Electron Energy =                -236.5234379175333856
    Two-Electron Energy =                  81.3245262739414301
    PCM Polarization Energy =              -0.0092232606832277
    Total Energy =                       -115.0915042799777979
  Basis Set: (6-311++G(2D,2P) AUX)
    Blend: AUG-CC-PVTZ-RI
	 Reference Energy          =    -115.0915042799777979 [Eh]
	 Singles Energy            =      -0.0000000000000000 [Eh]
	 Same-Spin Energy          =      -0.0930219585923092 [Eh]
	 Opposite-Spin Energy      =      -0.2989035832068792 [Eh]
	 Correlation Energy        =      -0.3919255417991884 [Eh]
	 Total Energy              =    -115.4834298217769799 [Eh]

	 ================> DF-SCS-MP2 Energies <==================
	-----------------------------------------------------------
	 SCS Same-Spin Scale       =       0.3333333333333333 [-]
	 SCS Opposite-Spin Scale   =       1.2000000000000000 [-]
	 SCS Same-Spin Energy      =      -0.0310073195307697 [Eh]
	 SCS Opposite-Spin Energy  =      -0.3586842998482551 [Eh]
	 SCS Correlation Energy    =      -0.3896916193790248 [Eh]
	 SCS Total Energy          =    -115.4811958993568197 [Eh]
	-----------------------------------------------------------

  Dipole Moment: [D]
     X:    -1.4270      Y:    -1.7786      Z:    -0.6031     Total:     2.3587

*** Psi4 exiting successfully. Buy a developer a beer!
