                               Psi4 1.3.2 release

  ==> Input File <==

--------------------------------------------------------------------------
molecule {
0 1
O            0.696446585262     0.040745448724     0.013948831755
C           -0.732830942368     0.010016229128     0.003248984518
H           -1.129447483355    -0.748003894317     0.686523598049
H           -1.129102562542    -0.176196635248    -1.000274768364
H           -1.067929757844     0.992188032413     0.336122956058
H            0.999059582043    -0.833908866500    -0.282434970113
}
set {
 basis 6-311G**
 e_convergence 10
 d_convergence 10
 scf_type pk
 pcm true
  pcm_scf_type total
}
pcm = {
 Units = Angstrom
 Medium {
 SolverType = IEFPCM
 Solvent = Water
 }
 Cavity {
 RadiiSet = UFF
 Type = GePol
 Scaling = False
 Area = 0.3
 Mode = Implicit
 }
}
memory 700MB
set_num_threads(1)
psi4_io.set_default_path("/scratch/bdw2292")
set freeze_core True
E, wfn = energy('mp2/6-311G**',return_wfn=True)
gdma(wfn)
fchk(wfn, "methanol-dma.fchk")
clean()
--------------------------------------------------------------------------

    Molecular point group: c1

    Geometry (in Angstrom), charge = 0, multiplicity = 1:

       Center              X                  Y                   Z               Mass
    ------------   -----------------  -----------------  -----------------  -----------------
         O            0.696446585262     0.040745448724     0.013948831755    15.994914619570
         C           -0.732830942368     0.010016229128     0.003248984518    12.000000000000
         H           -1.129447483355    -0.748003894317     0.686523598049     1.007825032230
         H           -1.129102562542    -0.176196635248    -1.000274768364     1.007825032230
         H           -1.067929757844     0.992188032413     0.336122956058     1.007825032230
         H            0.999059582043    -0.833908866500    -0.282434970113     1.007825032230

  Charge       = 0
  Multiplicity = 1
  Basis Set: 6-311G**
    Blend: 6-311G**

    Orbital Energies [Eh]
    ---------------------

    Doubly Occupied:

       1A    -20.549789     2A    -11.266393     3A     -1.350126
       4A     -0.918510     5A     -0.683625     6A     -0.614475
       7A     -0.587416     8A     -0.503065     9A     -0.450146

  @RHF Final Energy:  -115.08193415514954

   => Energetics <=

    Nuclear Repulsion Energy =             40.1166306242974002
    One-Electron Energy =                -236.6302763051038482
    Two-Electron Energy =                  81.4407468452307342
    PCM Polarization Energy =              -0.0090353195738188
    Total Energy =                       -115.0819341551495398

  Dipole Moment: [D]
     X:    -1.3765      Y:    -1.7677      Z:    -0.5994     Total:     2.3192

  Basis Set: (6-311G** AUX)
    Blend: CC-PVTZ-RI
	 Reference Energy          =    -115.0819341551495398 [Eh]
	 Singles Energy            =      -0.0000000000000000 [Eh]
	 Same-Spin Energy          =      -0.0851183696370735 [Eh]
	 Opposite-Spin Energy      =      -0.2760933885482965 [Eh]
	 Correlation Energy        =      -0.3612117581853700 [Eh]
	 Total Energy              =    -115.4431459133349165 [Eh]

	 ================> DF-SCS-MP2 Energies <==================
	-----------------------------------------------------------
	 SCS Same-Spin Scale       =       0.3333333333333333 [-]
	 SCS Opposite-Spin Scale   =       1.2000000000000000 [-]
	 SCS Same-Spin Energy      =      -0.0283727898790245 [Eh]
	 SCS Opposite-Spin Energy  =      -0.3313120662579558 [Eh]
	 SCS Correlation Energy    =      -0.3596848561369803 [Eh]
	 SCS Total Energy          =    -115.4416190112865195 [Eh]
	-----------------------------------------------------------

*** Psi4 exiting successfully. Buy a developer a beer!
