                               Psi4 1.3.2 release

  ==> Input File <==

--------------------------------------------------------------------------
molecule {
0 1
 O    0.707900    0.000000    0.000000
 C   -0.707900    0.000000    0.000000
 H   -1.073200   -0.769000    0.685200
 H   -1.073100   -0.194700   -1.011300
 H   -1.063200    0.978600    0.331200
 H    0.993600   -0.880400   -0.298000
}
set {
 basis 6-31G*
 e_convergence 10
 d_convergence 10
 scf_type pk
 pcm true
  pcm_scf_type total
}
pcm = {
 Units = Angstrom
 Medium {
 SolverType = IEFPCM
 Solvent = Water
 }
 Cavity {
 RadiiSet = UFF
 Type = GePol
 Scaling = False
 Area = 0.3
 Mode = Implicit
 }
}
memory 700MB
set_num_threads(1)
psi4_io.set_default_path("/scratch/bdw2292")
optimize('mp2/6-31G*')
clean()
--------------------------------------------------------------------------

    Molecular point group: c1
  Charge       = 0
  Multiplicity = 1
  Basis Set: 6-31G*
    Blend: 6-31G*
  @RHF Final Energy:  -115.04205405961629
    Total Energy =                       -115.0420540596162908
  Basis Set: (6-31G* AUX)
    Blend: CC-PVDZ-RI
	 Reference Energy          =    -115.0420540596162908 [Eh]
	 Singles Energy            =      -0.0000000000000000 [Eh]
	 Same-Spin Energy          =      -0.0777129930306077 [Eh]
	 Opposite-Spin Energy      =      -0.2403046294632125 [Eh]
	 Correlation Energy        =      -0.3180176224938202 [Eh]
	 Total Energy              =    -115.3600716821101173 [Eh]
	 SCS Total Energy          =    -115.3563239459823535 [Eh]
    Molecular point group: c1
  Basis Set: 6-31G*
    Blend: 6-31G*
  @RHF Final Energy:  -115.04204783344251
    Total Energy =                       -115.0420478334425098
  Basis Set: (6-31G* AUX)
    Blend: CC-PVDZ-RI
	 Reference Energy          =    -115.0420478334425098 [Eh]
	 Singles Energy            =      -0.0000000000000000 [Eh]
	 Same-Spin Energy          =      -0.0777124754198060 [Eh]
  @RHF Final Energy:  -115.04205884974174
    Total Energy =                       -115.0420588497417356
  @RHF Final Energy:  -115.04211615535858
    Total Energy =                       -115.0421161553585847
  @RHF Final Energy:  -115.04198578108105
    Total Energy =                       -115.0419857810810527
  @RHF Final Energy:  -115.04207289778768
    Total Energy =                       -115.0420728977876763
  @RHF Final Energy:  -115.04203375321401
    Total Energy =                       -115.0420337532140138
  @RHF Final Energy:  -115.04202647602318
    Total Energy =                       -115.0420264760231817
  @RHF Final Energy:  -115.04207803543068
    Total Energy =                       -115.0420780354306771
  @RHF Final Energy:  -115.04209589003165
    Total Energy =                       -115.0420958900316464
  @RHF Final Energy:  -115.04200599606288
    Total Energy =                       -115.0420059960628834
  @RHF Final Energy:  -115.04206631328830
    Total Energy =                       -115.0420663132883021
  @RHF Final Energy:  -115.04203674487633
    Total Energy =                       -115.0420367448763272
  @RHF Final Energy:  -115.04206993176949
    Total Energy =                       -115.0420699317694897
  @RHF Final Energy:  -115.04203554328075
    Total Energy =                       -115.0420355432807469
  @RHF Final Energy:  -115.04203746609925
    Total Energy =                       -115.0420374660992451
  @RHF Final Energy:  -115.04206439936172
    Total Energy =                       -115.0420643993617205
  @RHF Final Energy:  -115.04209486183959
    Total Energy =                       -115.0420948618395869
  @RHF Final Energy:  -115.04200830495286
    Total Energy =                       -115.0420083049528586
  @RHF Final Energy:  -115.04206124739038
    Total Energy =                       -115.0420612473903788
  @RHF Final Energy:  -115.04219183026457
    Total Energy =                       -115.0421918302645707
  @RHF Final Energy:  -115.04213939949899
    Total Energy =                       -115.0421393994989927
  @RHF Final Energy:  -115.04215793017319
    Total Energy =                       -115.0421579301731896
  @RHF Final Energy:  -115.04217109830377
    Total Energy =                       -115.0421710983037684
  @RHF Final Energy:  -115.04220001250116
    Total Energy =                       -115.0422000125011550
  @RHF Final Energy:  -115.04212643891759
    Total Energy =                       -115.0421264389175917
  @RHF Final Energy:  -115.04217614788719
    Total Energy =                       -115.0421761478871900
  @RHF Final Energy:  -115.04215154143658
    Total Energy =                       -115.0421515414365814
  @RHF Final Energy:  -115.04215691651092
    Total Energy =                       -115.0421569165109190
  @RHF Final Energy:  -115.04217305916600
    Total Energy =                       -115.0421730591660037
  @RHF Final Energy:  -115.04214696161073
    Total Energy =                       -115.0421469616107260
  @RHF Final Energy:  -115.04217955016136
    Total Energy =                       -115.0421795501613644
  @RHF Final Energy:  -115.04219424569139
    Total Energy =                       -115.0421942456913911
  @RHF Final Energy:  -115.04213343761941
    Total Energy =                       -115.0421334376194125
  @RHF Final Energy:  -115.04214704074275
    Total Energy =                       -115.0421470407427478
  @RHF Final Energy:  -115.04218204197036
    Total Energy =                       -115.0421820419703636
  @RHF Final Energy:  -115.04214875823806
    Total Energy =                       -115.0421487582380564
  @RHF Final Energy:  -115.04217746602855
    Total Energy =                       -115.0421774660285479
  @RHF Final Energy:  -115.04207489308014
    Total Energy =                       -115.0420748930801409
    Blend: CC-PVDZ-RI
	 Reference Energy          =    -115.0420748930801409 [Eh]
	 Singles Energy            =      -0.0000000000000000 [Eh]
	 Same-Spin Energy          =      -0.0778529476398429 [Eh]
	 Opposite-Spin Energy      =      -0.2409268985334031 [Eh]
	 Correlation Energy        =      -0.3187798461732460 [Eh]
	 Total Energy              =    -115.3608547392533836 [Eh]
	 SCS Total Energy          =    -115.3571381538668419 [Eh]
    Molecular point group: c1
  Charge       = 0
  Multiplicity = 1
  Basis Set: 6-31G*
    Blend: 6-31G*

    Orbital Energies [Eh]
    ---------------------

    Doubly Occupied:

       1A    -20.563744     2A    -11.267628     3A     -1.350357
       4A     -0.919225     5A     -0.684007     6A     -0.614589
       7A     -0.587429     8A     -0.503136     9A     -0.448801

  @RHF Final Energy:  -115.04224888355689

   => Energetics <=

    Nuclear Repulsion Energy =             40.1325642977162147
    One-Electron Energy =                -236.5533123759889804
    Two-Electron Energy =                  81.3877305866619594
    PCM Polarization Energy =              -0.0092313919460868
    Total Energy =                       -115.0422488835568942

  Dipole Moment: [D]
     X:    -1.3754      Y:    -1.7853      Z:    -0.6053     Total:     2.3335

  Basis Set: (6-31G* AUX)
    Blend: CC-PVDZ-RI
	 Reference Energy          =    -115.0422488835568942 [Eh]
	 Singles Energy            =      -0.0000000000000000 [Eh]
	 Same-Spin Energy          =      -0.0778215765592360 [Eh]
	 Opposite-Spin Energy      =      -0.2407837479548955 [Eh]
	 Correlation Energy        =      -0.3186053245141316 [Eh]
	 Total Energy              =    -115.3608542080710322 [Eh]

	 ================> DF-SCS-MP2 Energies <==================
	-----------------------------------------------------------
	 SCS Same-Spin Scale       =       0.3333333333333333 [-]
	 SCS Opposite-Spin Scale   =       1.2000000000000000 [-]
	 SCS Same-Spin Energy      =      -0.0259405255197453 [Eh]
	 SCS Opposite-Spin Energy  =      -0.2889404975458746 [Eh]
	 SCS Correlation Energy    =      -0.3148810230656200 [Eh]
	 SCS Total Energy          =    -115.3571299066225180 [Eh]
	-----------------------------------------------------------

  **** Optimization is complete! (in 4 steps) ****
    Final optimized geometry and variables:
    Molecular point group: c1

    Geometry (in Angstrom), charge = 0, multiplicity = 1:

    O            0.696446585262     0.040745448724     0.013948831755
    C           -0.732830942368     0.010016229128     0.003248984518
    H           -1.129447483355    -0.748003894317     0.686523598049
    H           -1.129102562542    -0.176196635248    -1.000274768364
    H           -1.067929757844     0.992188032413     0.336122956058
    H            0.999059582043    -0.833908866500    -0.282434970113

*** Psi4 exiting successfully. Buy a developer a beer!
