                               Psi4 1.3.2 release

  ==> Input File <==

--------------------------------------------------------------------------
molecule {
0 1
N          0.75110        0.00000       -0.12581
C         -0.70636        0.00000        0.01757
H         -1.07868       -0.00004        1.05311
H         -1.11071       -0.88099       -0.48621
H         -1.11070        0.88102       -0.48614
H          1.14028       -0.81260        0.34726
H          1.14028        0.81260        0.34726
}
memory 5GB
set_num_threads(4)
psi4_io.set_default_path("/scratch/bdw2292")
set freeze_core True
E, wfn = energy('mp2/6-311++G(2d,2p)',return_wfn=True)
oeprop(wfn,"DIPOLE","GRID_ESP")
clean()
--------------------------------------------------------------------------

    Molecular point group: c1

    Geometry (in Angstrom), charge = 0, multiplicity = 1:

       Center              X                  Y                   Z               Mass
    ------------   -----------------  -----------------  -----------------  -----------------
         N            0.718438621075     0.000000324663    -0.101019870106    14.003074004430
         C           -0.739021378925     0.000000324663     0.042360129894    12.000000000000
         H           -1.111341378925    -0.000039675337     1.077900129894     1.007825032230
         H           -1.143371378925    -0.880989675337    -0.461419870106     1.007825032230
         H           -1.143361378925     0.881020324663    -0.461349870106     1.007825032230
         H            1.107618621075    -0.812599675337     0.372050129894     1.007825032230
         H            1.107618621075     0.812600324663     0.372050129894     1.007825032230

  Charge       = 0
  Multiplicity = 1
  Basis Set: 6-311++G(2D,2P)
    Blend: 6-311++G(2D,2P)
  Basis Set: (6-311++G(2D,2P) AUX)
    Blend: AUG-CC-PVTZ-JKFIT

    Orbital Energies [Eh]
    ---------------------

    Doubly Occupied:

       1A    -15.540444     2A    -11.241753     3A     -1.169621
       4A     -0.894257     5A     -0.661310     6A     -0.603565
       7A     -0.554402     8A     -0.516275     9A     -0.392830

  @DF-RHF Final Energy:   -95.25001041489216

   => Energetics <=

    Nuclear Repulsion Energy =             41.9581535252263009
    One-Electron Energy =                -211.2674121846537787
    Two-Electron Energy =                  74.0592482445353255
    Total Energy =                        -95.2500104148921594
  Basis Set: (6-311++G(2D,2P) AUX)
    Blend: AUG-CC-PVTZ-RI
	 Reference Energy          =     -95.2500104148921594 [Eh]
	 Singles Energy            =      -0.0000000000000000 [Eh]
	 Same-Spin Energy          =      -0.0836146849486219 [Eh]
	 Opposite-Spin Energy      =      -0.2869548282747856 [Eh]
	 Correlation Energy        =      -0.3705695132234074 [Eh]
	 Total Energy              =     -95.6205799281155606 [Eh]

	 ================> DF-SCS-MP2 Energies <==================
	-----------------------------------------------------------
	 SCS Same-Spin Scale       =       0.3333333333333333 [-]
	 SCS Opposite-Spin Scale   =       1.2000000000000000 [-]
	 SCS Same-Spin Energy      =      -0.0278715616495406 [Eh]
	 SCS Opposite-Spin Energy  =      -0.3443457939297427 [Eh]
	 SCS Correlation Energy    =      -0.3722173555792833 [Eh]
	 SCS Total Energy          =     -95.6222277704714401 [Eh]
	-----------------------------------------------------------

  Dipole Moment: [D]
     X:    -0.3281      Y:     0.0000      Z:     1.4368     Total:     1.4738

*** Psi4 exiting successfully. Buy a developer a beer!
