                               Psi4 1.3.2 release

  ==> Input File <==

--------------------------------------------------------------------------
molecule {
0 1
N          0.75110        0.00000       -0.12581
C         -0.70636        0.00000        0.01757
H         -1.07868       -0.00004        1.05311
H         -1.11071       -0.88099       -0.48621
H         -1.11070        0.88102       -0.48614
H          1.14028       -0.81260        0.34726
H          1.14028        0.81260        0.34726
}
memory 5GB
set_num_threads(4)
psi4_io.set_default_path("/scratch/bdw2292")
set freeze_core True
E, wfn = energy('mp2/6-311G**',return_wfn=True)
gdma(wfn)
fchk(wfn, "methylamine-dma.fchk")
clean()
--------------------------------------------------------------------------

    Molecular point group: c1

    Geometry (in Angstrom), charge = 0, multiplicity = 1:

       Center              X                  Y                   Z               Mass
    ------------   -----------------  -----------------  -----------------  -----------------
         N            0.718438621075     0.000000324663    -0.101019870106    14.003074004430
         C           -0.739021378925     0.000000324663     0.042360129894    12.000000000000
         H           -1.111341378925    -0.000039675337     1.077900129894     1.007825032230
         H           -1.143371378925    -0.880989675337    -0.461419870106     1.007825032230
         H           -1.143361378925     0.881020324663    -0.461349870106     1.007825032230
         H            1.107618621075    -0.812599675337     0.372050129894     1.007825032230
         H            1.107618621075     0.812600324663     0.372050129894     1.007825032230

  Charge       = 0
  Multiplicity = 1
  Basis Set: 6-311G**
    Blend: 6-311G**
  Basis Set: (6-311G** AUX)
    Blend: CC-PVTZ-JKFIT

    Orbital Energies [Eh]
    ---------------------

    Doubly Occupied:

       1A    -15.531321     2A    -11.240661     3A     -1.164774
       4A     -0.891751     5A     -0.656660     6A     -0.599926
       7A     -0.550892     8A     -0.513667     9A     -0.389057

  @DF-RHF Final Energy:   -95.24173072948237

   => Energetics <=

    Nuclear Repulsion Energy =             41.9581535252263009
    One-Electron Energy =                -211.3223491651407642
    Two-Electron Energy =                  74.1224649104321003
    Total Energy =                        -95.2417307294823701

  Dipole Moment: [D]
     X:    -0.2946      Y:     0.0000      Z:     1.4584     Total:     1.4878

  Basis Set: (6-311G** AUX)
    Blend: CC-PVTZ-RI
	 Reference Energy          =     -95.2417307294823701 [Eh]
	 Singles Energy            =      -0.0000000000000000 [Eh]
	 Same-Spin Energy          =      -0.0778068141157558 [Eh]
	 Opposite-Spin Energy      =      -0.2678442236687588 [Eh]
	 Correlation Energy        =      -0.3456510377845146 [Eh]
	 Total Energy              =     -95.5873817672668906 [Eh]

	 ================> DF-SCS-MP2 Energies <==================
	-----------------------------------------------------------
	 SCS Same-Spin Scale       =       0.3333333333333333 [-]
	 SCS Opposite-Spin Scale   =       1.2000000000000000 [-]
	 SCS Same-Spin Energy      =      -0.0259356047052519 [Eh]
	 SCS Opposite-Spin Energy  =      -0.3214130684025105 [Eh]
	 SCS Correlation Energy    =      -0.3473486731077625 [Eh]
	 SCS Total Energy          =     -95.5890794025901300 [Eh]
	-----------------------------------------------------------

*** Psi4 exiting successfully. Buy a developer a beer!
