 Gaussian 09, Revision A.02,
 Gaussian 09:  EM64L-G09RevA.02 11-Jun-2009

 ----------------------------------------------------------------------
 #P MP2/6-311++G(2d,2p) SP SCF=(qc,maxcycle=800) Guess=Indo MaxDisk=100
 GB SCRF=(PCM)
 ----------------------------------------------------------------------

 ---------------------------------------------------------------
 methanol Rotatable Bond SP Calculation on node36.bme.utexas.edu
 ---------------------------------------------------------------
 Symbolic Z-matrix:
 Charge =  0 Multiplicity = 1

                         Standard orientation:
 ---------------------------------------------------------------------
 Center     Atomic      Atomic             Coordinates (Angstroms)
 Number     Number       Type             X           Y           Z
 ---------------------------------------------------------------------
      1          8           0        0.750266   -0.130006   -0.003978
      2          6           0       -0.677176    0.020680    0.003158
      3          1           0       -0.924756    1.079031   -0.122575
      4          1           0       -1.061218   -0.375922    0.947618
      5          1           0       -1.077381   -0.555911   -0.836683
      6          1           0        1.124284    0.768768    0.024511
 ---------------------------------------------------------------------

 SCF Done:  E(RHF) =  -115.087076007     a.u. after    8 cycles
 E2 =    -0.3923402090D+00 EUMP2 =    -0.11547941621554D+03

 The electronic state is 1-A.
 Alpha  occ. eigenvalues --  -20.56143 -11.27050  -1.35447  -0.92096  -0.68836
 Alpha  occ. eigenvalues --   -0.62013  -0.59284  -0.50684  -0.45280
 Alpha virt. eigenvalues --    0.04442   0.06834   0.07723   0.07999   0.12711
 Alpha virt. eigenvalues --    0.15393   0.15682   0.18634   0.24767   0.27282
 Alpha virt. eigenvalues --    0.28630   0.30378   0.30870   0.33367   0.34777

 Mulliken atomic charges:
              1
     1  O   -0.567876
     2  C    0.143875
     3  H    0.044840
     4  H    0.046031
     5  H    0.046096
     6  H    0.287035
 Sum of Mulliken atomic charges =   0.00000

 Dipole moment (field-independent basis, Debye):
    X=             -1.2455    Y=              1.9806    Z=              0.0476  Tot=              2.3402
 Quadrupole moment (field-independent basis, Debye-Ang):
   XX=            -13.1563   YY=            -11.9124   ZZ=            -13.7069
   XY=              2.4075   XZ=              0.1023   YZ=              0.0159

 Normal termination of Gaussian 09 at Sun Dec 29 12:29:14 2019.
