 Gaussian 09, Revision A.02,
 Gaussian 09:  EM64L-G09RevA.02 11-Jun-2009

 ----------------------------------------------------------------------
 #P MP2/6-311++G(2d,2p) SP SCF=(qc,maxcycle=800) Guess=Indo MaxDisk=100
 GB SCRF=(PCM)
 ----------------------------------------------------------------------

 ---------------------------------------------------------------
 methanol Rotatable Bond SP Calculation on node36.bme.utexas.edu
 ---------------------------------------------------------------
 Symbolic Z-matrix:
 Charge =  0 Multiplicity = 1

                         Standard orientation:
 ---------------------------------------------------------------------
 Center     Atomic      Atomic             Coordinates (Angstroms)
 Number     Number       Type             X           Y           Z
 ---------------------------------------------------------------------
      1          8           0       -0.749871   -0.130952   -0.002502
      2          6           0        0.677008    0.017935   -0.002872
      3          1           0        0.950372    0.769179   -0.749962
      4          1           0        1.125881   -0.955695   -0.220123
      5          1           0        0.978904    0.355855    0.993577
      6          1           0       -1.118233    0.770669    0.013758
 ---------------------------------------------------------------------

 SCF Done:  E(RHF) =  -115.088164129     a.u. after    8 cycles
 E2 =    -0.3921884432D+00 EUMP2 =    -0.11548035257172D+03

 The electronic state is 1-A.
 Alpha  occ. eigenvalues --  -20.56200 -11.27063  -1.35510  -0.92085  -0.68730
 Alpha  occ. eigenvalues --   -0.62049  -0.59392  -0.50869  -0.45210
 Alpha virt. eigenvalues --    0.04438   0.06758   0.07711   0.08055   0.12578
 Alpha virt. eigenvalues --    0.15443   0.15856   0.18646   0.26698   0.27718
 Alpha virt. eigenvalues --    0.28156   0.29830   0.30443   0.32105   0.34344

 Mulliken atomic charges:
              1
     1  O   -0.559641
     2  C    0.138132
     3  H    0.043271
     4  H    0.050381
     5  H    0.044664
     6  H    0.283193
 Sum of Mulliken atomic charges =   0.00000

 Dipole moment (field-independent basis, Debye):
    X=              1.2656    Y=              1.9278    Z=              0.0198  Tot=              2.3062
 Quadrupole moment (field-independent basis, Debye-Ang):
   XX=            -13.1470   YY=            -11.8858   ZZ=            -13.7570
   XY=             -2.5405   XZ=             -0.0924   YZ=              0.0104

 Normal termination of Gaussian 09 at Sun Dec 29 12:29:42 2019.
