 Gaussian 09, Revision A.02,
 Gaussian 09:  EM64L-G09RevA.02 11-Jun-2009

 -----------------------------------------------
 #P opt=(,maxcycle=400) HF/6-311G* MaxDisk=100GB
 -----------------------------------------------

 -------------------------------------------------------------
 methanol Rotatable Bond Optimization on node36.bme.utexas.edu
 -------------------------------------------------------------
 Symbolic Z-matrix:
 Charge =  0 Multiplicity = 1

 SCF Done:  E(RHF) =  -115.058249746     A.U. after   11 cycles
 SCF Done:  E(RHF) =  -115.061413415     A.U. after   11 cycles
 SCF Done:  E(RHF) =  -115.061660884     A.U. after   10 cycles
 SCF Done:  E(RHF) =  -115.061830019     A.U. after   10 cycles
 SCF Done:  E(RHF) =  -115.062433044     A.U. after   12 cycles
 SCF Done:  E(RHF) =  -115.062748188     A.U. after   12 cycles
 SCF Done:  E(RHF) =  -115.063509498     A.U. after   10 cycles
 SCF Done:  E(RHF) =  -115.063624506     A.U. after   12 cycles
 SCF Done:  E(RHF) =  -115.063725042     A.U. after   10 cycles
 SCF Done:  E(RHF) =  -115.063728353     A.U. after   13 cycles
 Optimization completed.
    -- Stationary point found.

                         Standard orientation:
 ---------------------------------------------------------------------
 Center     Atomic      Atomic             Coordinates (Angstroms)
 Number     Number       Type             X           Y           Z
 ---------------------------------------------------------------------
      1          8           0       -0.735920    0.119487   -0.000082
      2          6           0        0.655179   -0.019649   -0.000021
      3          1           0        1.012116   -0.544571   -0.882836
      4          1           0        1.011307   -0.542231    0.884434
      5          1           0        1.076345    0.975183   -0.001009
      6          1           0       -1.143481   -0.726382    0.000191
 ---------------------------------------------------------------------

 The electronic state is 1-A.
 Alpha  occ. eigenvalues --  -20.54169 -11.26482  -1.36444  -0.92835  -0.69699
 Alpha  occ. eigenvalues --   -0.62227  -0.59730  -0.49811  -0.44494
 Alpha virt. eigenvalues --    0.15461   0.18911   0.22732   0.23398   0.34624
 Alpha virt. eigenvalues --    0.46132   0.48404   0.59615   0.70030   0.73726
 Alpha virt. eigenvalues --    0.79099   0.80578   0.94603   1.06461   1.07997

 Mulliken atomic charges:
              1
     1  O   -0.652906
     2  C   -0.327651
     3  H    0.179904
     4  H    0.179923
     5  H    0.209461
     6  H    0.411269
 Sum of Mulliken atomic charges =   0.00000

 Dipole moment (field-independent basis, Debye):
    X=              0.8854    Y=             -1.7071    Z=              0.0005  Tot=              1.9230
 Quadrupole moment (field-independent basis, Debye-Ang):
   XX=            -12.6392   YY=            -12.0945   ZZ=            -13.6210
   XY=              2.4347   XZ=             -0.0015   YZ=             -0.0002

 Normal termination of Gaussian 09 at Sun Dec 29 12:25:57 2019.
