 Gaussian 09, Revision A.02,
 Gaussian 09:  EM64L-G09RevA.02 11-Jun-2009

 -----------------------------------------------
 #P opt=(,maxcycle=400) HF/6-311G* MaxDisk=100GB
 -----------------------------------------------

 -------------------------------------------------------------
 methanol Rotatable Bond Optimization on node36.bme.utexas.edu
 -------------------------------------------------------------
 Symbolic Z-matrix:
 Charge =  0 Multiplicity = 1

 SCF Done:  E(RHF) =  -115.059626577     A.U. after   11 cycles
 SCF Done:  E(RHF) =  -115.062952612     A.U. after   11 cycles
 SCF Done:  E(RHF) =  -115.063337799     A.U. after   10 cycles
 SCF Done:  E(RHF) =  -115.063571366     A.U. after   12 cycles
 SCF Done:  E(RHF) =  -115.063688625     A.U. after   10 cycles
 SCF Done:  E(RHF) =  -115.063722841     A.U. after    9 cycles
 SCF Done:  E(RHF) =  -115.063728141     A.U. after   13 cycles
 SCF Done:  E(RHF) =  -115.063728415     A.U. after    7 cycles
 Optimization completed.
    -- Stationary point found.

                         Standard orientation:
 ---------------------------------------------------------------------
 Center     Atomic      Atomic             Coordinates (Angstroms)
 Number     Number       Type             X           Y           Z
 ---------------------------------------------------------------------
      1          8           0        0.735843    0.119492    0.000002
      2          6           0       -0.655157   -0.019644    0.000003
      3          1           0       -1.011486   -0.542612    0.884150
      4          1           0       -1.011355   -0.544280   -0.883209
      5          1           0       -1.076198    0.975205   -0.000984
      6          1           0        1.143239   -0.726381    0.000007
 ---------------------------------------------------------------------

 The electronic state is 1-A.
 Alpha  occ. eigenvalues --  -20.54166 -11.26479  -1.36449  -0.92835  -0.69702
 Alpha  occ. eigenvalues --   -0.62232  -0.59732  -0.49811  -0.44493
 Alpha virt. eigenvalues --    0.15461   0.18913   0.22732   0.23399   0.34624
 Alpha virt. eigenvalues --    0.46132   0.48404   0.59618   0.70041   0.73724
 Alpha virt. eigenvalues --    0.79100   0.80581   0.94603   1.06460   1.07995

 Mulliken atomic charges:
              1
     1  O   -0.652877
     2  C   -0.327648
     3  H    0.179917
     4  H    0.179897
     5  H    0.209456
     6  H    0.411254
 Sum of Mulliken atomic charges =   0.00000

 Dipole moment (field-independent basis, Debye):
    X=             -0.8853    Y=             -1.7070    Z=             -0.0001  Tot=              1.9230
 Quadrupole moment (field-independent basis, Debye-Ang):
   XX=            -12.6409   YY=            -12.0939   ZZ=            -13.6204
   XY=             -2.4345   XZ=              0.0002   YZ=             -0.0001

 Normal termination of Gaussian 09 at Sun Dec 29 12:25:42 2019.
