 Gaussian 09, Revision A.02,
 Gaussian 09:  EM64L-G09RevA.02 11-Jun-2009

 -----------------------------------------------
 #P opt=(,maxcycle=400) HF/6-311G* MaxDisk=100GB
 -----------------------------------------------

 -------------------------------------------------------------
 methanol Rotatable Bond Optimization on node36.bme.utexas.edu
 -------------------------------------------------------------
 Symbolic Z-matrix:
 Charge =  0 Multiplicity = 1

 SCF Done:  E(RHF) =  -115.058165628     A.U. after   11 cycles
 SCF Done:  E(RHF) =  -115.061308236     A.U. after   11 cycles
 SCF Done:  E(RHF) =  -115.061502107     A.U. after   10 cycles
 SCF Done:  E(RHF) =  -115.061554776     A.U. after    9 cycles
 SCF Done:  E(RHF) =  -115.061807862     A.U. after   11 cycles
 SCF Done:  E(RHF) =  -115.061783092     A.U. after   12 cycles
 SCF Done:  E(RHF) =  -115.062071152     A.U. after   11 cycles
 SCF Done:  E(RHF) =  -115.062159693     A.U. after   10 cycles
 SCF Done:  E(RHF) =  -115.062997375     A.U. after   10 cycles
 SCF Done:  E(RHF) =  -115.063612445     A.U. after   12 cycles
 SCF Done:  E(RHF) =  -115.063701373     A.U. after   10 cycles
 SCF Done:  E(RHF) =  -115.063726545     A.U. after    9 cycles
 SCF Done:  E(RHF) =  -115.063728089     A.U. after   13 cycles
 SCF Done:  E(RHF) =  -115.063728437     A.U. after   13 cycles
 Optimization completed.
    -- Stationary point found.

                         Standard orientation:
 ---------------------------------------------------------------------
 Center     Atomic      Atomic             Coordinates (Angstroms)
 Number     Number       Type             X           Y           Z
 ---------------------------------------------------------------------
      1          8           0        0.735873    0.119502   -0.000001
      2          6           0       -0.655179   -0.019647    0.000001
      3          1           0       -1.011512   -0.542968    0.883956
      4          1           0       -1.011486   -0.544031   -0.883333
      5          1           0       -1.076503    0.975110   -0.000617
      6          1           0        1.143593   -0.726248   -0.000002
 ---------------------------------------------------------------------

 The electronic state is 1-A.
 Alpha  occ. eigenvalues --  -20.54166 -11.26481  -1.36445  -0.92836  -0.69700
 Alpha  occ. eigenvalues --   -0.62229  -0.59733  -0.49809  -0.44493
 Alpha virt. eigenvalues --    0.15462   0.18911   0.22732   0.23399   0.34624
 Alpha virt. eigenvalues --    0.46134   0.48403   0.59619   0.70034   0.73725
 Alpha virt. eigenvalues --    0.79099   0.80580   0.94603   1.06463   1.07995

 Mulliken atomic charges:
              1
     1  O   -0.652941
     2  C   -0.327616
     3  H    0.179912
     4  H    0.179901
     5  H    0.209461
     6  H    0.411284
 Sum of Mulliken atomic charges =   0.00000

 Dipole moment (field-independent basis, Debye):
    X=             -0.8850    Y=             -1.7070    Z=             -0.0001  Tot=              1.9228
 Quadrupole moment (field-independent basis, Debye-Ang):
   XX=            -12.6386   YY=            -12.0947   ZZ=            -13.6208
   XY=             -2.4352   XZ=              0.0002   YZ=             -0.0001

 Normal termination of Gaussian 09 at Sun Dec 29 12:24:58 2019.
