 Gaussian 09, Revision A.02,
 Gaussian 09:  EM64L-G09RevA.02 11-Jun-2009

 -----------------------------------------------
 #P opt=(,maxcycle=400) HF/6-311G* MaxDisk=100GB
 -----------------------------------------------

 -------------------------------------------------------------
 methanol Rotatable Bond Optimization on node36.bme.utexas.edu
 -------------------------------------------------------------
 Symbolic Z-matrix:
 Charge =  0 Multiplicity = 1

 SCF Done:  E(RHF) =  -115.059892027     A.U. after   11 cycles
 SCF Done:  E(RHF) =  -115.063355935     A.U. after   12 cycles
 SCF Done:  E(RHF) =  -115.063628346     A.U. after   10 cycles
 SCF Done:  E(RHF) =  -115.063688440     A.U. after    9 cycles
 SCF Done:  E(RHF) =  -115.063718471     A.U. after   10 cycles
 SCF Done:  E(RHF) =  -115.063727367     A.U. after    9 cycles
 SCF Done:  E(RHF) =  -115.063728432     A.U. after    7 cycles
 Optimization completed.
    -- Stationary point found.

                         Standard orientation:
 ---------------------------------------------------------------------
 Center     Atomic      Atomic             Coordinates (Angstroms)
 Number     Number       Type             X           Y           Z
 ---------------------------------------------------------------------
      1          8           0        0.735864    0.119508    0.000002
      2          6           0       -0.655187   -0.019641    0.000001
      3          1           0       -1.011357   -0.544482   -0.883117
      4          1           0       -1.076552    0.975085   -0.001096
      5          1           0       -1.011538   -0.542604    0.884167
      6          1           0        1.143660   -0.726216    0.000030
 ---------------------------------------------------------------------

 The electronic state is 1-A.
 Alpha  occ. eigenvalues --  -20.54166 -11.26481  -1.36444  -0.92836  -0.69699
 Alpha  occ. eigenvalues --   -0.62229  -0.59734  -0.49808  -0.44492
 Alpha virt. eigenvalues --    0.15461   0.18911   0.22732   0.23399   0.34624
 Alpha virt. eigenvalues --    0.46135   0.48402   0.59619   0.70034   0.73724
 Alpha virt. eigenvalues --    0.79099   0.80580   0.94602   1.06463   1.07995

 Mulliken atomic charges:
              1
     1  O   -0.652959
     2  C   -0.327601
     3  H    0.179893
     4  H    0.209467
     5  H    0.179911
     6  H    0.411287
 Sum of Mulliken atomic charges =   0.00000

 Dipole moment (field-independent basis, Debye):
    X=             -0.8849    Y=             -1.7070    Z=             -0.0001  Tot=              1.9227
 Quadrupole moment (field-independent basis, Debye-Ang):
   XX=            -12.6383   YY=            -12.0948   ZZ=            -13.6208
   XY=             -2.4354   XZ=              0.0003   YZ=             -0.0002

 Normal termination of Gaussian 09 at Sun Dec 29 12:26:20 2019.
