 Gaussian 09, Revision A.02,
 Gaussian 09:  EM64L-G09RevA.02 11-Jun-2009

 ----------------------------------------------------------------------
 #P MP2/6-311++G(2d,2p) SP SCF=(qc,maxcycle=800) Guess=Indo MaxDisk=100
 GB SCRF=(PCM)
 ----------------------------------------------------------------------

 ---------------------------------------------------------------
 methanol Rotatable Bond SP Calculation on node36.bme.utexas.edu
 ---------------------------------------------------------------
 Symbolic Z-matrix:
 Charge =  0 Multiplicity = 1

                         Standard orientation:
 ---------------------------------------------------------------------
 Center     Atomic      Atomic             Coordinates (Angstroms)
 Number     Number       Type             X           Y           Z
 ---------------------------------------------------------------------
      1          8           0       -0.750197   -0.130401    0.001260
      2          6           0        0.677203    0.019390   -0.003356
      3          1           0        0.928084    1.024305   -0.356142
      4          1           0        1.103354   -0.754961   -0.647930
      5          1           0        1.029640   -0.111893    1.024551
      6          1           0       -1.122719    0.769420   -0.010423
 ---------------------------------------------------------------------

 SCF Done:  E(RHF) =  -115.087286316     a.u. after    8 cycles
 E2 =    -0.3922994764D+00 EUMP2 =    -0.11547958579224D+03

 The electronic state is 1-A.
 Alpha  occ. eigenvalues --  -20.56151 -11.27054  -1.35458  -0.92091  -0.68838
 Alpha  occ. eigenvalues --   -0.61931  -0.59348  -0.50804  -0.45202
 Alpha virt. eigenvalues --    0.04442   0.06815   0.07727   0.08008   0.12679
 Alpha virt. eigenvalues --    0.15356   0.15773   0.18640   0.25221   0.27257
 Alpha virt. eigenvalues --    0.28465   0.30350   0.30830   0.33135   0.34650

 Mulliken atomic charges:
              1
     1  O   -0.564977
     2  C    0.142058
     3  H    0.043948
     4  H    0.048000
     5  H    0.045270
     6  H    0.285702
 Sum of Mulliken atomic charges =   0.00000

 Dipole moment (field-independent basis, Debye):
    X=              1.2505    Y=              1.9692    Z=             -0.0485  Tot=              2.3332
 Quadrupole moment (field-independent basis, Debye-Ang):
   XX=            -13.1543   YY=            -11.8818   ZZ=            -13.7446
   XY=             -2.4463   XZ=             -0.0430   YZ=             -0.0046

 Normal termination of Gaussian 09 at Sun Dec 29 12:29:28 2019.
