 Gaussian 09, Revision A.02,
 Gaussian 09:  EM64L-G09RevA.02 11-Jun-2009

 ----------------------------------------------------------------------
 #P MP2/6-311++G(2d,2p) SP SCF=(qc,maxcycle=800) Guess=Indo MaxDisk=100
 GB SCRF=(PCM)
 ----------------------------------------------------------------------

 ---------------------------------------------------------------
 methanol Rotatable Bond SP Calculation on node36.bme.utexas.edu
 ---------------------------------------------------------------
 Symbolic Z-matrix:
 Charge =  0 Multiplicity = 1

                         Standard orientation:
 ---------------------------------------------------------------------
 Center     Atomic      Atomic             Coordinates (Angstroms)
 Number     Number       Type             X           Y           Z
 ---------------------------------------------------------------------
      1          8           0        0.749889   -0.130340   -0.003289
      2          6           0       -0.676790    0.021678    0.001868
      3          1           0       -0.939695    0.897882   -0.598487
      4          1           0       -1.009865    0.123955    1.038931
      5          1           0       -1.109985   -0.879043   -0.444155
      6          1           0        1.121169    0.769861    0.018816
 ---------------------------------------------------------------------

 SCF Done:  E(RHF) =  -115.088029734     a.u. after    8 cycles
 E2 =    -0.3922486922D+00 EUMP2 =    -0.11548027842644D+03

 The electronic state is 1-A.
 Alpha  occ. eigenvalues --  -20.56192 -11.27050  -1.35496  -0.92092  -0.68681
 Alpha  occ. eigenvalues --   -0.62235  -0.59272  -0.50633  -0.45373
 Alpha virt. eigenvalues --    0.04444   0.06794   0.07667   0.08069   0.12613
 Alpha virt. eigenvalues --    0.15500   0.15748   0.18649   0.26182   0.27197
 Alpha virt. eigenvalues --    0.28259   0.30246   0.30603   0.32610   0.34403

 Mulliken atomic charges:
              1
     1  O   -0.561685
     2  C    0.139870
     3  H    0.043350
     4  H    0.045921
     5  H    0.048573
     6  H    0.283972
 Sum of Mulliken atomic charges =   0.00000

 Dipole moment (field-independent basis, Debye):
    X=             -1.2564    Y=              1.9400    Z=              0.0174  Tot=              2.3114
 Quadrupole moment (field-independent basis, Debye-Ang):
   XX=            -13.1448   YY=            -11.9530   ZZ=            -13.6822
   XY=              2.4918   XZ=              0.1323   YZ=              0.0148

 Normal termination of Gaussian 09 at Sun Dec 29 12:29:00 2019.
