 Gaussian 09, Revision A.02,
 Gaussian 09:  EM64L-G09RevA.02 11-Jun-2009

 ----------------------------------------------------------------------
 #P MP2/6-311++G(2d,2p) SP SCF=(qc,maxcycle=800) Guess=Indo MaxDisk=100
 GB SCRF=(PCM)
 ----------------------------------------------------------------------

 ---------------------------------------------------------------
 methanol Rotatable Bond SP Calculation on node36.bme.utexas.edu
 ---------------------------------------------------------------
 Symbolic Z-matrix:
 Charge =  0 Multiplicity = 1

                         Standard orientation:
 ---------------------------------------------------------------------
 Center     Atomic      Atomic             Coordinates (Angstroms)
 Number     Number       Type             X           Y           Z
 ---------------------------------------------------------------------
      1          8           0       -0.750061   -0.130603    0.004298
      2          6           0        0.677220    0.016194    0.001844
      3          1           0        1.120619   -0.925537   -0.334609
      4          1           0        0.999314    0.282823    1.012853
      5          1           0        0.935394    0.819728   -0.695423
      6          1           0       -1.118157    0.770650   -0.028264
 ---------------------------------------------------------------------

 SCF Done:  E(RHF) =  -115.087956675     a.u. after    8 cycles
 E2 =    -0.3922209925D+00 EUMP2 =    -0.11548017766774D+03

 The electronic state is 1-A.
 Alpha  occ. eigenvalues --  -20.56187 -11.27063  -1.35496  -0.92083  -0.68724
 Alpha  occ. eigenvalues --   -0.62184  -0.59308  -0.50696  -0.45314
 Alpha virt. eigenvalues --    0.04439   0.06784   0.07686   0.08064   0.12597
 Alpha virt. eigenvalues --    0.15465   0.15789   0.18642   0.26427   0.27232
 Alpha virt. eigenvalues --    0.28229   0.30172   0.30556   0.32435   0.34356

 Mulliken atomic charges:
              1
     1  O   -0.561561
     2  C    0.139222
     3  H    0.050032
     4  H    0.046158
     5  H    0.041883
     6  H    0.284265
 Sum of Mulliken atomic charges =   0.00000

 Dipole moment (field-independent basis, Debye):
    X=              1.2658    Y=              1.9370    Z=             -0.0977  Tot=              2.3160
 Quadrupole moment (field-independent basis, Debye-Ang):
   XX=            -13.1564   YY=            -11.9258   ZZ=            -13.7081
   XY=             -2.5156   XZ=              0.0186   YZ=             -0.0149

 Normal termination of Gaussian 09 at Sun Dec 29 12:28:46 2019.
