 Gaussian 09, Revision A.02,
 Gaussian 09:  EM64L-G09RevA.02 11-Jun-2009

 -----------------------------------------------
 #P opt=(,maxcycle=400) HF/6-311G* MaxDisk=100GB
 -----------------------------------------------

 -------------------------------------------------------------
 methanol Rotatable Bond Optimization on node36.bme.utexas.edu
 -------------------------------------------------------------
 Symbolic Z-matrix:
 Charge =  0 Multiplicity = 1

 SCF Done:  E(RHF) =  -115.058241899     A.U. after   11 cycles
 SCF Done:  E(RHF) =  -115.061546084     A.U. after   11 cycles
 SCF Done:  E(RHF) =  -115.061881543     A.U. after   10 cycles
 SCF Done:  E(RHF) =  -115.062216475     A.U. after   10 cycles
 SCF Done:  E(RHF) =  -115.062776017     A.U. after   12 cycles
 SCF Done:  E(RHF) =  -115.063127349     A.U. after    9 cycles
 SCF Done:  E(RHF) =  -115.063693520     A.U. after   10 cycles
 SCF Done:  E(RHF) =  -115.063724641     A.U. after   12 cycles
 SCF Done:  E(RHF) =  -115.063728207     A.U. after   13 cycles
 Optimization completed.
    -- Stationary point found.

                         Standard orientation:
 ---------------------------------------------------------------------
 Center     Atomic      Atomic             Coordinates (Angstroms)
 Number     Number       Type             X           Y           Z
 ---------------------------------------------------------------------
      1          8           0        0.736021    0.119458    0.000013
      2          6           0       -0.655418   -0.019638    0.000011
      3          1           0       -1.076162    0.975216   -0.001869
      4          1           0       -1.011512   -0.541868    0.884485
      5          1           0       -1.011388   -0.544946   -0.882683
      6          1           0        1.143397   -0.726243   -0.000099
 ---------------------------------------------------------------------

 The electronic state is 1-A.
 Alpha  occ. eigenvalues --  -20.54161 -11.26478  -1.36434  -0.92842  -0.69695
 Alpha  occ. eigenvalues --   -0.62229  -0.59723  -0.49817  -0.44497
 Alpha virt. eigenvalues --    0.15463   0.18914   0.22731   0.23397   0.34615
 Alpha virt. eigenvalues --    0.46131   0.48402   0.59634   0.70016   0.73728
 Alpha virt. eigenvalues --    0.79108   0.80584   0.94606   1.06465   1.07996

 Mulliken atomic charges:
              1
     1  O   -0.653144
     2  C   -0.327693
     3  H    0.209530
     4  H    0.180038
     5  H    0.180000
     6  H    0.411268
 Sum of Mulliken atomic charges =   0.00000

 Dipole moment (field-independent basis, Debye):
    X=             -0.8873    Y=             -1.7071    Z=             -0.0005  Tot=              1.9240
 Quadrupole moment (field-independent basis, Debye-Ang):
   XX=            -12.6398   YY=            -12.0932   ZZ=            -13.6195
   XY=             -2.4344   XZ=              0.0002   YZ=             -0.0002

 Normal termination of Gaussian 09 at Sun Dec 29 12:26:57 2019.
