 Gaussian 09, Revision A.02,
 Gaussian 09:  EM64L-G09RevA.02 11-Jun-2009

 -----------------------------------------------
 #P opt=(,maxcycle=400) HF/6-311G* MaxDisk=100GB
 -----------------------------------------------

 -------------------------------------------------------------
 methanol Rotatable Bond Optimization on node36.bme.utexas.edu
 -------------------------------------------------------------
 Symbolic Z-matrix:
 Charge =  0 Multiplicity = 1

 SCF Done:  E(RHF) =  -115.059402652     A.U. after   11 cycles
 SCF Done:  E(RHF) =  -115.062743240     A.U. after   11 cycles
 SCF Done:  E(RHF) =  -115.063172993     A.U. after   10 cycles
 SCF Done:  E(RHF) =  -115.063498962     A.U. after   12 cycles
 SCF Done:  E(RHF) =  -115.063662831     A.U. after   10 cycles
 SCF Done:  E(RHF) =  -115.063716938     A.U. after   10 cycles
 SCF Done:  E(RHF) =  -115.063727844     A.U. after   13 cycles
 SCF Done:  E(RHF) =  -115.063728409     A.U. after    8 cycles
 Optimization completed.
    -- Stationary point found.

                         Standard orientation:
 ---------------------------------------------------------------------
 Center     Atomic      Atomic             Coordinates (Angstroms)
 Number     Number       Type             X           Y           Z
 ---------------------------------------------------------------------
      1          8           0       -0.735841    0.119487    0.000001
      2          6           0        0.655145   -0.019646    0.000003
      3          1           0        1.011411   -0.544331   -0.883167
      4          1           0        1.011516   -0.542515    0.884205
      5          1           0        1.076148    0.975225   -0.001066
      6          1           0       -1.143218   -0.726402    0.000002
 ---------------------------------------------------------------------

 The electronic state is 1-A.
 Alpha  occ. eigenvalues --  -20.54167 -11.26480  -1.36450  -0.92835  -0.69702
 Alpha  occ. eigenvalues --   -0.62232  -0.59732  -0.49811  -0.44493
 Alpha virt. eigenvalues --    0.15461   0.18913   0.22732   0.23398   0.34625
 Alpha virt. eigenvalues --    0.46131   0.48404   0.59618   0.70042   0.73724
 Alpha virt. eigenvalues --    0.79100   0.80581   0.94603   1.06460   1.07996

 Mulliken atomic charges:
              1
     1  O   -0.652861
     2  C   -0.327650
     3  H    0.179892
     4  H    0.179913
     5  H    0.209453
     6  H    0.411253
 Sum of Mulliken atomic charges =   0.00000

 Dipole moment (field-independent basis, Debye):
    X=              0.8853    Y=             -1.7070    Z=             -0.0001  Tot=              1.9229
 Quadrupole moment (field-independent basis, Debye-Ang):
   XX=            -12.6410   YY=            -12.0939   ZZ=            -13.6205
   XY=              2.4344   XZ=             -0.0002   YZ=             -0.0001

 Normal termination of Gaussian 09 at Sun Dec 29 12:24:37 2019.
