 Gaussian 09, Revision A.02,
 Gaussian 09:  EM64L-G09RevA.02 11-Jun-2009

 -----------------------------------------------
 #P opt=(,maxcycle=400) HF/6-311G* MaxDisk=100GB
 -----------------------------------------------

 -------------------------------------------------------------
 methanol Rotatable Bond Optimization on node36.bme.utexas.edu
 -------------------------------------------------------------
 Symbolic Z-matrix:
 Charge =  0 Multiplicity = 1

 SCF Done:  E(RHF) =  -115.059761556     A.U. after   11 cycles
 SCF Done:  E(RHF) =  -115.063236946     A.U. after   12 cycles
 SCF Done:  E(RHF) =  -115.063555635     A.U. after   10 cycles
 SCF Done:  E(RHF) =  -115.063657557     A.U. after   10 cycles
 SCF Done:  E(RHF) =  -115.063712751     A.U. after   10 cycles
 SCF Done:  E(RHF) =  -115.063726386     A.U. after    9 cycles
 SCF Done:  E(RHF) =  -115.063728326     A.U. after   13 cycles
 Optimization completed.
    -- Stationary point found.

                         Standard orientation:
 ---------------------------------------------------------------------
 Center     Atomic      Atomic             Coordinates (Angstroms)
 Number     Number       Type             X           Y           Z
 ---------------------------------------------------------------------
      1          8           0        0.735932    0.119531    0.000002
      2          6           0       -0.655174   -0.019627   -0.000001
      3          1           0       -1.011469   -0.544844   -0.882960
      4          1           0       -1.076913    0.975028   -0.001431
      5          1           0       -1.011850   -0.542368    0.884282
      6          1           0        1.143816   -0.726299    0.000103
 ---------------------------------------------------------------------

 The electronic state is 1-A.
 Alpha  occ. eigenvalues --  -20.54170 -11.26485  -1.36440  -0.92833  -0.69696
 Alpha  occ. eigenvalues --   -0.62223  -0.59734  -0.49807  -0.44492
 Alpha virt. eigenvalues --    0.15461   0.18908   0.22733   0.23399   0.34624
 Alpha virt. eigenvalues --    0.46138   0.48399   0.59610   0.70024   0.73724
 Alpha virt. eigenvalues --    0.79095   0.80576   0.94603   1.06465   1.07996

 Mulliken atomic charges:
              1
     1  O   -0.652931
     2  C   -0.327592
     3  H    0.179873
     4  H    0.209462
     5  H    0.179895
     6  H    0.411294
 Sum of Mulliken atomic charges =   0.00000

 Dipole moment (field-independent basis, Debye):
    X=             -0.8849    Y=             -1.7070    Z=              0.0000  Tot=              1.9227
 Quadrupole moment (field-independent basis, Debye-Ang):
   XX=            -12.6373   YY=            -12.0954   ZZ=            -13.6219
   XY=             -2.4359   XZ=              0.0004   YZ=             -0.0003

 Normal termination of Gaussian 09 at Sun Dec 29 12:26:31 2019.
