 Gaussian 09, Revision A.02,
 Gaussian 09:  EM64L-G09RevA.02 11-Jun-2009

 -----------------------------------------------
 #P opt=(,maxcycle=400) HF/6-311G* MaxDisk=100GB
 -----------------------------------------------

 -------------------------------------------------------------
 methanol Rotatable Bond Optimization on node36.bme.utexas.edu
 -------------------------------------------------------------
 Symbolic Z-matrix:
 Charge =  0 Multiplicity = 1

 SCF Done:  E(RHF) =  -115.058760511     A.U. after   11 cycles
 SCF Done:  E(RHF) =  -115.062225515     A.U. after   11 cycles
 SCF Done:  E(RHF) =  -115.062706656     A.U. after   10 cycles
 SCF Done:  E(RHF) =  -115.063213471     A.U. after   11 cycles
 SCF Done:  E(RHF) =  -115.063536828     A.U. after   12 cycles
 SCF Done:  E(RHF) =  -115.063691846     A.U. after   10 cycles
 SCF Done:  E(RHF) =  -115.063727463     A.U. after   13 cycles
 SCF Done:  E(RHF) =  -115.063728392     A.U. after    9 cycles
 Optimization completed.
    -- Stationary point found.

                         Standard orientation:
 ---------------------------------------------------------------------
 Center     Atomic      Atomic             Coordinates (Angstroms)
 Number     Number       Type             X           Y           Z
 ---------------------------------------------------------------------
      1          8           0        0.735881    0.119538    0.000020
      2          6           0       -0.655197   -0.019628    0.000011
      3          1           0       -1.076965    0.974969   -0.000595
      4          1           0       -1.011452   -0.543251    0.883832
      5          1           0       -1.011221   -0.544100   -0.883398
      6          1           0        1.143772   -0.726153   -0.000066
 ---------------------------------------------------------------------

 The electronic state is 1-A.
 Alpha  occ. eigenvalues --  -20.54165 -11.26482  -1.36442  -0.92835  -0.69698
 Alpha  occ. eigenvalues --   -0.62227  -0.59736  -0.49807  -0.44491
 Alpha virt. eigenvalues --    0.15461   0.18910   0.22732   0.23400   0.34623
 Alpha virt. eigenvalues --    0.46139   0.48398   0.59618   0.70030   0.73724
 Alpha virt. eigenvalues --    0.79099   0.80579   0.94602   1.06466   1.07993

 Mulliken atomic charges:
              1
     1  O   -0.652985
     2  C   -0.327586
     3  H    0.209468
     4  H    0.179909
     5  H    0.179892
     6  H    0.411302
 Sum of Mulliken atomic charges =   0.00000

 Dipole moment (field-independent basis, Debye):
    X=             -0.8849    Y=             -1.7070    Z=             -0.0003  Tot=              1.9227
 Quadrupole moment (field-independent basis, Debye-Ang):
   XX=            -12.6375   YY=            -12.0951   ZZ=            -13.6212
   XY=             -2.4360   XZ=             -0.0002   YZ=             -0.0001

 Normal termination of Gaussian 09 at Sun Dec 29 12:25:09 2019.
