 Gaussian 09, Revision A.02,
 Gaussian 09:  EM64L-G09RevA.02 11-Jun-2009

 ----------------------------------------------------------------------
 #P MP2/6-311++G(2d,2p) SP SCF=(qc,maxcycle=800) Guess=Indo MaxDisk=100
 GB SCRF=(PCM)
 ----------------------------------------------------------------------

 ---------------------------------------------------------------
 methanol Rotatable Bond SP Calculation on node36.bme.utexas.edu
 ---------------------------------------------------------------
 Symbolic Z-matrix:
 Charge =  0 Multiplicity = 1

                         Standard orientation:
 ---------------------------------------------------------------------
 Center     Atomic      Atomic             Coordinates (Angstroms)
 Number     Number       Type             X           Y           Z
 ---------------------------------------------------------------------
      1          8           0        0.750464   -0.130012    0.002482
      2          6           0       -0.677575    0.015245    0.000782
      3          1           0       -1.043567   -0.162426    1.016324
      4          1           0       -1.095827   -0.696859   -0.716651
      5          1           0       -0.919877    1.037436   -0.307224
      6          1           0        1.121008    0.770474   -0.016994
 ---------------------------------------------------------------------

 SCF Done:  E(RHF) =  -115.087148737     a.u. after    8 cycles
 E2 =    -0.3923178547D+00 EUMP2 =    -0.11547946659191D+03

 The electronic state is 1-A.
 Alpha  occ. eigenvalues --  -20.56139 -11.27056  -1.35445  -0.92084  -0.68800
 Alpha  occ. eigenvalues --   -0.62198  -0.59214  -0.50509  -0.45392
 Alpha virt. eigenvalues --    0.04439   0.06841   0.07687   0.08031   0.12685
 Alpha virt. eigenvalues --    0.15446   0.15649   0.18630   0.25021   0.27239
 Alpha virt. eigenvalues --    0.28602   0.30358   0.30878   0.33300   0.34603

 Mulliken atomic charges:
              1
     1  O   -0.567964
     2  C    0.143661
     3  H    0.046441
     4  H    0.047912
     5  H    0.042698
     6  H    0.287252
 Sum of Mulliken atomic charges =   0.00000

 Dipole moment (field-independent basis, Debye):
    X=             -1.2563    Y=              1.9779    Z=             -0.0659  Tot=              2.3441
 Quadrupole moment (field-independent basis, Debye-Ang):
   XX=            -13.1707   YY=            -11.9551   ZZ=            -13.6596
   XY=              2.4262   XZ=              0.0097   YZ=             -0.0089

 Normal termination of Gaussian 09 at Sun Dec 29 12:30:10 2019.
