 Gaussian 09, Revision A.02,
 Gaussian 09:  EM64L-G09RevA.02 11-Jun-2009

 ----------------------------------------------------------------------
 #P MP2/6-311++G(2d,2p) SP SCF=(qc,maxcycle=800) Guess=Indo MaxDisk=100
 GB SCRF=(PCM)
 ----------------------------------------------------------------------

 ---------------------------------------------------------------
 methanol Rotatable Bond SP Calculation on node36.bme.utexas.edu
 ---------------------------------------------------------------
 Symbolic Z-matrix:
 Charge =  0 Multiplicity = 1

                         Standard orientation:
 ---------------------------------------------------------------------
 Center     Atomic      Atomic             Coordinates (Angstroms)
 Number     Number       Type             X           Y           Z
 ---------------------------------------------------------------------
      1          8           0        0.750144   -0.130500    0.000715
      2          6           0       -0.677173    0.019193   -0.003318
      3          1           0       -1.107931   -0.795353   -0.592942
      4          1           0       -0.930010    0.999208   -0.419143
      5          1           0       -1.022254   -0.044635    1.033457
      6          1           0        1.122080    0.769625   -0.007185
 ---------------------------------------------------------------------

 SCF Done:  E(RHF) =  -115.087413689     a.u. after    8 cycles
 E2 =    -0.3922832661D+00 EUMP2 =    -0.11547969695500D+03

 The electronic state is 1-A.
 Alpha  occ. eigenvalues --  -20.56157 -11.27054  -1.35464  -0.92089  -0.68824
 Alpha  occ. eigenvalues --   -0.61937  -0.59358  -0.50821  -0.45196
 Alpha virt. eigenvalues --    0.04443   0.06808   0.07721   0.08017   0.12664
 Alpha virt. eigenvalues --    0.15362   0.15793   0.18642   0.25443   0.27238
 Alpha virt. eigenvalues --    0.28398   0.30335   0.30795   0.33013   0.34596

 Mulliken atomic charges:
              1
     1  O   -0.563927
     2  C    0.141368
     3  H    0.048405
     4  H    0.043664
     5  H    0.045282
     6  H    0.285209
 Sum of Mulliken atomic charges =   0.00000

 Dipole moment (field-independent basis, Debye):
    X=             -1.2526    Y=              1.9634    Z=             -0.0427  Tot=              2.3293
 Quadrupole moment (field-independent basis, Debye-Ang):
   XX=            -13.1533   YY=            -11.8800   ZZ=            -13.7490
   XY=              2.4606   XZ=              0.0591   YZ=             -0.0024

 Normal termination of Gaussian 09 at Sun Dec 29 12:28:18 2019.
