 Gaussian 09, Revision A.02,
 Gaussian 09:  EM64L-G09RevA.02 11-Jun-2009

 -----------------------------------------------
 #P opt=(,maxcycle=400) HF/6-311G* MaxDisk=100GB
 -----------------------------------------------

 -------------------------------------------------------------
 methanol Rotatable Bond Optimization on node36.bme.utexas.edu
 -------------------------------------------------------------
 Symbolic Z-matrix:
 Charge =  0 Multiplicity = 1

 SCF Done:  E(RHF) =  -115.058386893     A.U. after   11 cycles
 SCF Done:  E(RHF) =  -115.061747671     A.U. after   11 cycles
 SCF Done:  E(RHF) =  -115.062153631     A.U. after   10 cycles
 SCF Done:  E(RHF) =  -115.062636643     A.U. after   11 cycles
 SCF Done:  E(RHF) =  -115.063161820     A.U. after   12 cycles
 SCF Done:  E(RHF) =  -115.063444024     A.U. after   10 cycles
 SCF Done:  E(RHF) =  -115.063721211     A.U. after   12 cycles
 SCF Done:  E(RHF) =  -115.063724967     A.U. after   13 cycles
 SCF Done:  E(RHF) =  -115.063728436     A.U. after   13 cycles
 Optimization completed.
    -- Stationary point found.

                         Standard orientation:
 ---------------------------------------------------------------------
 Center     Atomic      Atomic             Coordinates (Angstroms)
 Number     Number       Type             X           Y           Z
 ---------------------------------------------------------------------
      1          8           0        0.735843    0.119505   -0.000007
      2          6           0       -0.655168   -0.019640    0.000000
      3          1           0       -1.011366   -0.544388   -0.883171
      4          1           0       -1.076529    0.975076   -0.000955
      5          1           0       -1.011468   -0.542694    0.884122
      6          1           0        1.143629   -0.726193    0.000058
 ---------------------------------------------------------------------

 The electronic state is 1-A.
 Alpha  occ. eigenvalues --  -20.54165 -11.26480  -1.36446  -0.92836  -0.69701
 Alpha  occ. eigenvalues --   -0.62229  -0.59735  -0.49808  -0.44492
 Alpha virt. eigenvalues --    0.15462   0.18911   0.22732   0.23399   0.34624
 Alpha virt. eigenvalues --    0.46135   0.48402   0.59620   0.70037   0.73724
 Alpha virt. eigenvalues --    0.79099   0.80581   0.94602   1.06463   1.07995

 Mulliken atomic charges:
              1
     1  O   -0.652947
     2  C   -0.327600
     3  H    0.179886
     4  H    0.209465
     5  H    0.179906
     6  H    0.411290
 Sum of Mulliken atomic charges =   0.00000

 Dipole moment (field-independent basis, Debye):
    X=             -0.8848    Y=             -1.7069    Z=              0.0000  Tot=              1.9226
 Quadrupole moment (field-independent basis, Debye-Ang):
   XX=            -12.6384   YY=            -12.0948   ZZ=            -13.6208
   XY=             -2.4353   XZ=              0.0003   YZ=             -0.0002

 Normal termination of Gaussian 09 at Sun Dec 29 12:26:44 2019.
