 Gaussian 09, Revision A.02,
 Gaussian 09:  EM64L-G09RevA.02 11-Jun-2009

 ----------------------------------------------------------------------
 #P MP2/6-311++G(2d,2p) SP SCF=(qc,maxcycle=800) Guess=Indo MaxDisk=100
 GB SCRF=(PCM)
 ----------------------------------------------------------------------

 ---------------------------------------------------------------
 methanol Rotatable Bond SP Calculation on node36.bme.utexas.edu
 ---------------------------------------------------------------
 Symbolic Z-matrix:
 Charge =  0 Multiplicity = 1

                         Standard orientation:
 ---------------------------------------------------------------------
 Center     Atomic      Atomic             Coordinates (Angstroms)
 Number     Number       Type             X           Y           Z
 ---------------------------------------------------------------------
      1          8           0       -0.750505   -0.129949    0.001925
      2          6           0        0.677612    0.015154    0.000588
      3          1           0        1.090245   -0.641822   -0.770692
      4          1           0        1.050825   -0.237285    0.997486
      5          1           0        0.918607    1.057276   -0.232513
      6          1           0       -1.121310    0.770493   -0.013212
 ---------------------------------------------------------------------

 SCF Done:  E(RHF) =  -115.087046734     a.u. after    8 cycles
 E2 =    -0.3923284954D+00 EUMP2 =    -0.11547937522944D+03

 The electronic state is 1-A.
 Alpha  occ. eigenvalues --  -20.56135 -11.27057  -1.35441  -0.92085  -0.68811
 Alpha  occ. eigenvalues --   -0.62200  -0.59206  -0.50491  -0.45401
 Alpha virt. eigenvalues --    0.04438   0.06846   0.07691   0.08024   0.12696
 Alpha virt. eigenvalues --    0.15452   0.15622   0.18627   0.24880   0.27249
 Alpha virt. eigenvalues --    0.28668   0.30367   0.30895   0.33370   0.34645

 Mulliken atomic charges:
              1
     1  O   -0.568873
     2  C    0.144289
     3  H    0.047578
     4  H    0.046474
     5  H    0.042885
     6  H    0.287647
 Sum of Mulliken atomic charges =   0.00000

 Dipole moment (field-independent basis, Debye):
    X=              1.2552    Y=              1.9828    Z=             -0.0516  Tot=              2.3473
 Quadrupole moment (field-independent basis, Debye-Ang):
   XX=            -13.1723   YY=            -11.9580   ZZ=            -13.6542
   XY=             -2.4150   XZ=             -0.0086   YZ=             -0.0069

 Normal termination of Gaussian 09 at Sun Dec 29 12:30:24 2019.
