 Gaussian 09, Revision A.02,
 Gaussian 09:  EM64L-G09RevA.02 11-Jun-2009

 -----------------------------------------------
 #P opt=(,maxcycle=400) HF/6-311G* MaxDisk=100GB
 -----------------------------------------------

 -------------------------------------------------------------
 methanol Rotatable Bond Optimization on node36.bme.utexas.edu
 -------------------------------------------------------------
 Symbolic Z-matrix:
 Charge =  0 Multiplicity = 1

 SCF Done:  E(RHF) =  -115.058572676     A.U. after   11 cycles
 SCF Done:  E(RHF) =  -115.061981109     A.U. after   11 cycles
 SCF Done:  E(RHF) =  -115.062433504     A.U. after   10 cycles
 SCF Done:  E(RHF) =  -115.062969954     A.U. after   11 cycles
 SCF Done:  E(RHF) =  -115.063391878     A.U. after   12 cycles
 SCF Done:  E(RHF) =  -115.063621409     A.U. after   10 cycles
 SCF Done:  E(RHF) =  -115.063724730     A.U. after   12 cycles
 SCF Done:  E(RHF) =  -115.063727714     A.U. after    9 cycles
 SCF Done:  E(RHF) =  -115.063728431     A.U. after    8 cycles
 Optimization completed.
    -- Stationary point found.

                         Standard orientation:
 ---------------------------------------------------------------------
 Center     Atomic      Atomic             Coordinates (Angstroms)
 Number     Number       Type             X           Y           Z
 ---------------------------------------------------------------------
      1          8           0       -0.735893    0.119496    0.000009
      2          6           0        0.655213   -0.019640    0.000009
      3          1           0        1.011539   -0.542946    0.883951
      4          1           0        1.076356    0.975166   -0.000679
      5          1           0        1.011402   -0.544018   -0.883367
      6          1           0       -1.143427   -0.726330   -0.000034
 ---------------------------------------------------------------------

 The electronic state is 1-A.
 Alpha  occ. eigenvalues --  -20.54166 -11.26481  -1.36444  -0.92836  -0.69699
 Alpha  occ. eigenvalues --   -0.62229  -0.59731  -0.49811  -0.44493
 Alpha virt. eigenvalues --    0.15461   0.18912   0.22732   0.23398   0.34622
 Alpha virt. eigenvalues --    0.46133   0.48402   0.59619   0.70033   0.73724
 Alpha virt. eigenvalues --    0.79100   0.80580   0.94603   1.06462   1.07995

 Mulliken atomic charges:
              1
     1  O   -0.652944
     2  C   -0.327636
     3  H    0.179931
     4  H    0.209473
     5  H    0.179910
     6  H    0.411266
 Sum of Mulliken atomic charges =   0.00000

 Dipole moment (field-independent basis, Debye):
    X=              0.8855    Y=             -1.7070    Z=             -0.0002  Tot=              1.9231
 Quadrupole moment (field-independent basis, Debye-Ang):
   XX=            -12.6398   YY=            -12.0941   ZZ=            -13.6206
   XY=              2.4349   XZ=              0.0000   YZ=             -0.0001

 Normal termination of Gaussian 09 at Sun Dec 29 12:26:10 2019.
