 Gaussian 09, Revision A.02,
 Gaussian 09:  EM64L-G09RevA.02 11-Jun-2009

 -----------------------------------------------
 #P opt=(,maxcycle=400) HF/6-311G* MaxDisk=100GB
 -----------------------------------------------

 -------------------------------------------------------------
 methanol Rotatable Bond Optimization on node36.bme.utexas.edu
 -------------------------------------------------------------
 Symbolic Z-matrix:
 Charge =  0 Multiplicity = 1

 SCF Done:  E(RHF) =  -115.060000579     A.U. after   11 cycles
 SCF Done:  E(RHF) =  -115.063437107     A.U. after   11 cycles
 SCF Done:  E(RHF) =  -115.063675717     A.U. after   10 cycles
 SCF Done:  E(RHF) =  -115.063710296     A.U. after    9 cycles
 SCF Done:  E(RHF) =  -115.063722214     A.U. after    9 cycles
 SCF Done:  E(RHF) =  -115.063727694     A.U. after    9 cycles
 SCF Done:  E(RHF) =  -115.063728439     A.U. after    8 cycles
 Optimization completed.
    -- Stationary point found.

                         Standard orientation:
 ---------------------------------------------------------------------
 Center     Atomic      Atomic             Coordinates (Angstroms)
 Number     Number       Type             X           Y           Z
 ---------------------------------------------------------------------
      1          8           0       -0.735857    0.119505   -0.000001
      2          6           0        0.655174   -0.019640   -0.000003
      3          1           0        1.076485    0.975110   -0.000451
      4          1           0        1.011427   -0.543928   -0.883424
      5          1           0        1.011506   -0.543126    0.883874
      6          1           0       -1.143602   -0.726252    0.000031
 ---------------------------------------------------------------------

 The electronic state is 1-A.
 Alpha  occ. eigenvalues --  -20.54166 -11.26481  -1.36445  -0.92835  -0.69700
 Alpha  occ. eigenvalues --   -0.62229  -0.59734  -0.49809  -0.44492
 Alpha virt. eigenvalues --    0.15461   0.18911   0.22732   0.23399   0.34624
 Alpha virt. eigenvalues --    0.46135   0.48402   0.59618   0.70036   0.73724
 Alpha virt. eigenvalues --    0.79099   0.80580   0.94602   1.06463   1.07995

 Mulliken atomic charges:
              1
     1  O   -0.652936
     2  C   -0.327605
     3  H    0.209464
     4  H    0.179896
     5  H    0.179900
     6  H    0.411282
 Sum of Mulliken atomic charges =   0.00000

 Dipole moment (field-independent basis, Debye):
    X=              0.8849    Y=             -1.7070    Z=              0.0000  Tot=              1.9227
 Quadrupole moment (field-independent basis, Debye-Ang):
   XX=            -12.6387   YY=            -12.0947   ZZ=            -13.6209
   XY=              2.4352   XZ=             -0.0002   YZ=             -0.0001

 Normal termination of Gaussian 09 at Sun Dec 29 12:25:20 2019.
