 Gaussian 09, Revision A.02,
 Gaussian 09:  EM64L-G09RevA.02 11-Jun-2009

 ----------------------------------------------------------------------
 #P MP2/6-311++G(2d,2p) SP SCF=(qc,maxcycle=800) Guess=Indo MaxDisk=100
 GB SCRF=(PCM)
 ----------------------------------------------------------------------

 ---------------------------------------------------------------
 methanol Rotatable Bond SP Calculation on node36.bme.utexas.edu
 ---------------------------------------------------------------
 Symbolic Z-matrix:
 Charge =  0 Multiplicity = 1

                         Standard orientation:
 ---------------------------------------------------------------------
 Center     Atomic      Atomic             Coordinates (Angstroms)
 Number     Number       Type             X           Y           Z
 ---------------------------------------------------------------------
      1          8           0        0.749997   -0.130700    0.004318
      2          6           0       -0.677162    0.016398    0.001998
      3          1           0       -0.992220    0.352519    0.994350
      4          1           0       -1.123115   -0.946054   -0.265328
      5          1           0       -0.939445    0.770037   -0.747479
      6          1           0        1.117774    0.770711   -0.028075
 ---------------------------------------------------------------------

 SCF Done:  E(RHF) =  -115.088073457     a.u. after    8 cycles
 E2 =    -0.3922056735D+00 EUMP2 =    -0.11548027913072D+03

 The electronic state is 1-A.
 Alpha  occ. eigenvalues --  -20.56193 -11.27063  -1.35503  -0.92083  -0.68713
 Alpha  occ. eigenvalues --   -0.62175  -0.59325  -0.50730  -0.45298
 Alpha virt. eigenvalues --    0.04438   0.06774   0.07690   0.08066   0.12585
 Alpha virt. eigenvalues --    0.15472   0.15805   0.18643   0.26595   0.27384
 Alpha virt. eigenvalues --    0.28202   0.30049   0.30493   0.32279   0.34332

 Mulliken atomic charges:
              1
     1  O   -0.560876
     2  C    0.138676
     3  H    0.045948
     4  H    0.050272
     5  H    0.042040
     6  H    0.283941
 Sum of Mulliken atomic charges =   0.00000

 Dipole moment (field-independent basis, Debye):
    X=             -1.2671    Y=              1.9315    Z=             -0.0935  Tot=              2.3119
 Quadrupole moment (field-independent basis, Debye-Ang):
   XX=            -13.1542   YY=            -11.9199   ZZ=            -13.7169
   XY=              2.5282   XZ=             -0.0286   YZ=             -0.0150

 Normal termination of Gaussian 09 at Sun Dec 29 12:29:56 2019.
