 Gaussian 09, Revision A.02,
 Gaussian 09:  EM64L-G09RevA.02 11-Jun-2009

 -----------------------------------------------
 #P opt=(,maxcycle=400) HF/6-311G* MaxDisk=100GB
 -----------------------------------------------

 -------------------------------------------------------------
 methanol Rotatable Bond Optimization on node36.bme.utexas.edu
 -------------------------------------------------------------
 Symbolic Z-matrix:
 Charge =  0 Multiplicity = 1

 SCF Done:  E(RHF) =  -115.060378783     A.U. after   11 cycles
 SCF Done:  E(RHF) =  -115.063539059     A.U. after   10 cycles
 SCF Done:  E(RHF) =  -115.063712859     A.U. after    9 cycles
 SCF Done:  E(RHF) =  -115.063728051     A.U. after    9 cycles
 SCF Done:  E(RHF) =  -115.063728402     A.U. after    7 cycles
 Optimization completed.
    -- Stationary point found.

                         Standard orientation:
 ---------------------------------------------------------------------
 Center     Atomic      Atomic             Coordinates (Angstroms)
 Number     Number       Type             X           Y           Z
 ---------------------------------------------------------------------
      1          8           0       -0.735918    0.119516    0.000000
      2          6           0        0.655195   -0.019632    0.000000
      3          1           0        1.011565   -0.543567   -0.883604
      4          1           0        1.011565   -0.543566    0.883605
      5          1           0        1.076801    0.975013   -0.000001
      6          1           0       -1.143759   -0.726216    0.000000
 ---------------------------------------------------------------------

 The electronic state is 1-A.
 Alpha  occ. eigenvalues --  -20.54167 -11.26482  -1.36441  -0.92836  -0.69698
 Alpha  occ. eigenvalues --   -0.62226  -0.59734  -0.49808  -0.44492
 Alpha virt. eigenvalues --    0.15461   0.18909   0.22733   0.23399   0.34623
 Alpha virt. eigenvalues --    0.46137   0.48400   0.59617   0.70027   0.73726
 Alpha virt. eigenvalues --    0.79098   0.80579   0.94603   1.06465   1.07995

 Mulliken atomic charges:
              1
     1  O   -0.652970
     2  C   -0.327610
     3  H    0.179904
     4  H    0.179904
     5  H    0.209473
     6  H    0.411300
 Sum of Mulliken atomic charges =   0.00000

 Dipole moment (field-independent basis, Debye):
    X=              0.8851    Y=             -1.7070    Z=              0.0000  Tot=              1.9228
 Quadrupole moment (field-independent basis, Debye-Ang):
   XX=            -12.6374   YY=            -12.0951   ZZ=            -13.6213
   XY=              2.4357   XZ=              0.0000   YZ=              0.0000

 Normal termination of Gaussian 09 at Sun Dec 29 12:24:25 2019.
