 Gaussian 09, Revision A.02,
 Gaussian 09:  EM64L-G09RevA.02 11-Jun-2009

 ----------------------------------------------------------------------
 #P MP2/6-311++G(2d,2p) SP SCF=(qc,maxcycle=800) Guess=Indo MaxDisk=100
 GB SCRF=(PCM)
 ----------------------------------------------------------------------

 ---------------------------------------------------------------
 methanol Rotatable Bond SP Calculation on node36.bme.utexas.edu
 ---------------------------------------------------------------
 Symbolic Z-matrix:
 Charge =  0 Multiplicity = 1

                         Standard orientation:
 ---------------------------------------------------------------------
 Center     Atomic      Atomic             Coordinates (Angstroms)
 Number     Number       Type             X           Y           Z
 ---------------------------------------------------------------------
      1          8           0       -0.749687    0.130586   -0.000021
      2          6           0        0.676602   -0.021998    0.000017
      3          1           0        0.968870   -0.560440   -0.906507
      4          1           0        0.968825   -0.560423    0.906569
      5          1           0        1.119517    0.978826    0.000021
      6          1           0       -1.119332   -0.770663   -0.000022
 ---------------------------------------------------------------------

 SCF Done:  E(RHF) =  -115.088545024     a.u. after    8 cycles
 E2 =    -0.3921909018D+00 EUMP2 =    -0.11548073592537D+03

 The electronic state is 1-A.
 Alpha  occ. eigenvalues --  -20.56217 -11.27049  -1.35520  -0.92089  -0.68595
 Alpha  occ. eigenvalues --   -0.62338  -0.59274  -0.50631  -0.45403
 Alpha virt. eigenvalues --    0.04442   0.06761   0.07670   0.08084   0.12562
 Alpha virt. eigenvalues --    0.15578   0.15762   0.18650   0.26647   0.28131
 Alpha virt. eigenvalues --    0.28611   0.29225   0.30411   0.31980   0.34259

 Mulliken atomic charges:
              1
     1  O   -0.559638
     2  C    0.138206
     3  H    0.044482
     4  H    0.044481
     5  H    0.049525
     6  H    0.282943
 Sum of Mulliken atomic charges =   0.00000

 Dipole moment (field-independent basis, Debye):
    X=              1.2626    Y=             -1.9179    Z=              0.0000  Tot=              2.2962
 Quadrupole moment (field-independent basis, Debye-Ang):
   XX=            -13.1392   YY=            -11.9674   ZZ=            -13.6768
   XY=              2.5425   XZ=              0.0000   YZ=              0.0001

 Normal termination of Gaussian 09 at Sun Dec 29 12:27:36 2019.
