 Gaussian 09, Revision A.02,
 Gaussian 09:  EM64L-G09RevA.02 11-Jun-2009

 ----------------------------------------------------------------------
 #P MP2/6-311++G(2d,2p) SP SCF=(qc,maxcycle=800) Guess=Indo MaxDisk=100
 GB SCRF=(PCM)
 ----------------------------------------------------------------------

 ---------------------------------------------------------------
 methanol Rotatable Bond SP Calculation on node36.bme.utexas.edu
 ---------------------------------------------------------------
 Symbolic Z-matrix:
 Charge =  0 Multiplicity = 1

                         Standard orientation:
 ---------------------------------------------------------------------
 Center     Atomic      Atomic             Coordinates (Angstroms)
 Number     Number       Type             X           Y           Z
 ---------------------------------------------------------------------
      1          8           0       -0.750285   -0.130015   -0.003758
      2          6           0        0.677201    0.020507    0.003244
      3          1           0        1.068091   -0.439358    0.915654
      4          1           0        0.924138    1.085022   -0.051838
      5          1           0        1.071229   -0.497345   -0.876830
      6          1           0       -1.124384    0.768754    0.023610
 ---------------------------------------------------------------------

 SCF Done:  E(RHF) =  -115.087015030     a.u. after    8 cycles
 E2 =    -0.3923434845D+00 EUMP2 =    -0.11547935851409D+03

 The electronic state is 1-A.
 Alpha  occ. eigenvalues --  -20.56140 -11.27050  -1.35445  -0.92096  -0.68849
 Alpha  occ. eigenvalues --   -0.61989  -0.59290  -0.50698  -0.45266
 Alpha virt. eigenvalues --    0.04442   0.06835   0.07732   0.07990   0.12717
 Alpha virt. eigenvalues --    0.15382   0.15683   0.18633   0.24708   0.27289
 Alpha virt. eigenvalues --    0.28661   0.30382   0.30878   0.33392   0.34803

 Mulliken atomic charges:
              1
     1  O   -0.568216
     2  C    0.144085
     3  H    0.046162
     4  H    0.044936
     5  H    0.045835
     6  H    0.287198
 Sum of Mulliken atomic charges =   0.00000

 Dipole moment (field-independent basis, Debye):
    X=              1.2451    Y=              1.9828    Z=              0.0511  Tot=              2.3418
 Quadrupole moment (field-independent basis, Debye-Ang):
   XX=            -13.1570   YY=            -11.9065   ZZ=            -13.7121
   XY=             -2.4040   XZ=             -0.0830   YZ=              0.0149

 Normal termination of Gaussian 09 at Sun Dec 29 12:28:04 2019.
