 Gaussian 09, Revision A.02,
 Gaussian 09:  EM64L-G09RevA.02 11-Jun-2009

 -----------------------------------------------
 #P opt=(,maxcycle=400) HF/6-311G* MaxDisk=100GB
 -----------------------------------------------

 -------------------------------------------------------------
 methanol Rotatable Bond Optimization on node36.bme.utexas.edu
 -------------------------------------------------------------
 Symbolic Z-matrix:
 Charge =  0 Multiplicity = 1

 SCF Done:  E(RHF) =  -115.059587538     A.U. after   11 cycles
 SCF Done:  E(RHF) =  -115.063087794     A.U. after   11 cycles
 SCF Done:  E(RHF) =  -115.063456655     A.U. after   12 cycles
 SCF Done:  E(RHF) =  -115.063617513     A.U. after   10 cycles
 SCF Done:  E(RHF) =  -115.063703745     A.U. after   10 cycles
 SCF Done:  E(RHF) =  -115.063725229     A.U. after   12 cycles
 SCF Done:  E(RHF) =  -115.063728259     A.U. after    8 cycles
 Optimization completed.
    -- Stationary point found.

                         Standard orientation:
 ---------------------------------------------------------------------
 Center     Atomic      Atomic             Coordinates (Angstroms)
 Number     Number       Type             X           Y           Z
 ---------------------------------------------------------------------
      1          8           0       -0.735946    0.119551    0.000001
      2          6           0        0.655201   -0.019622   -0.000002
      3          1           0        1.077235    0.974925   -0.001220
      4          1           0        1.011412   -0.544764   -0.883032
      5          1           0        1.011730   -0.542645    0.884167
      6          1           0       -1.144012   -0.726190    0.000091
 ---------------------------------------------------------------------

 The electronic state is 1-A.
 Alpha  occ. eigenvalues --  -20.54169 -11.26486  -1.36437  -0.92833  -0.69694
 Alpha  occ. eigenvalues --   -0.62222  -0.59735  -0.49806  -0.44491
 Alpha virt. eigenvalues --    0.15461   0.18907   0.22733   0.23399   0.34623
 Alpha virt. eigenvalues --    0.46141   0.48397   0.59611   0.70020   0.73724
 Alpha virt. eigenvalues --    0.79095   0.80575   0.94602   1.06467   1.07995

 Mulliken atomic charges:
              1
     1  O   -0.652987
     2  C   -0.327569
     3  H    0.209469
     4  H    0.179878
     5  H    0.179897
     6  H    0.411313
 Sum of Mulliken atomic charges =   0.00000

 Dipole moment (field-independent basis, Debye):
    X=              0.8848    Y=             -1.7070    Z=              0.0000  Tot=              1.9227
 Quadrupole moment (field-independent basis, Debye-Ang):
   XX=            -12.6360   YY=            -12.0958   ZZ=            -13.6220
   XY=              2.4365   XZ=             -0.0003   YZ=             -0.0002

 Normal termination of Gaussian 09 at Sun Dec 29 12:25:30 2019.
