 Gaussian 09, Revision A.02,
 Gaussian 09:  EM64L-G09RevA.02 11-Jun-2009

 ----------------------------------------------------------------------
 #P MP2/6-311++G(2d,2p) SP SCF=(qc,maxcycle=800) Guess=Indo MaxDisk=100
 GB SCRF=(PCM)
 ----------------------------------------------------------------------

 ---------------------------------------------------------------
 methanol Rotatable Bond SP Calculation on node36.bme.utexas.edu
 ---------------------------------------------------------------
 Symbolic Z-matrix:
 Charge =  0 Multiplicity = 1

                         Standard orientation:
 ---------------------------------------------------------------------
 Center     Atomic      Atomic             Coordinates (Angstroms)
 Number     Number       Type             X           Y           Z
 ---------------------------------------------------------------------
      1          8           0       -0.749847    0.130972   -0.002935
      2          6           0        0.676997   -0.017713   -0.002771
      3          1           0        1.127052    0.967999   -0.152627
      4          1           0        0.955228   -0.718575   -0.795615
      5          1           0        0.972305   -0.420157    0.971453
      6          1           0       -1.117794   -0.770764    0.016895
 ---------------------------------------------------------------------

 SCF Done:  E(RHF) =  -115.088237691     a.u. after    8 cycles
 E2 =    -0.3921796601D+00 EUMP2 =    -0.11548041735156D+03

 The electronic state is 1-A.
 Alpha  occ. eigenvalues --  -20.56203 -11.27063  -1.35514  -0.92084  -0.68717
 Alpha  occ. eigenvalues --   -0.62071  -0.59389  -0.50862  -0.45218
 Alpha virt. eigenvalues --    0.04438   0.06754   0.07711   0.08058   0.12570
 Alpha virt. eigenvalues --    0.15457   0.15855   0.18646   0.26712   0.28018
 Alpha virt. eigenvalues --    0.28170   0.29585   0.30423   0.32020   0.34322

 Mulliken atomic charges:
              1
     1  O   -0.559471
     2  C    0.137852
     3  H    0.050533
     4  H    0.043597
     5  H    0.044339
     6  H    0.283150
 Sum of Mulliken atomic charges =   0.00000

 Dipole moment (field-independent basis, Debye):
    X=              1.2669    Y=             -1.9245    Z=              0.0327  Tot=              2.3043
 Quadrupole moment (field-independent basis, Debye-Ang):
   XX=            -13.1472   YY=            -11.8892   ZZ=            -13.7545
   XY=              2.5476   XZ=             -0.0875   YZ=             -0.0119

 Normal termination of Gaussian 09 at Sun Dec 29 12:28:32 2019.
