 Gaussian 09, Revision A.02,
 Gaussian 09:  EM64L-G09RevA.02 11-Jun-2009

 ----------------------------------------------------------------------
 #P MP2/6-311++G(2d,2p) SP SCF=(qc,maxcycle=800) Guess=Indo MaxDisk=100
 GB SCRF=(PCM)
 ----------------------------------------------------------------------

 ---------------------------------------------------------------
 methanol Rotatable Bond SP Calculation on node36.bme.utexas.edu
 ---------------------------------------------------------------
 Symbolic Z-matrix:
 Charge =  0 Multiplicity = 1

                         Standard orientation:
 ---------------------------------------------------------------------
 Center     Atomic      Atomic             Coordinates (Angstroms)
 Number     Number       Type             X           Y           Z
 ---------------------------------------------------------------------
      1          8           0       -0.749954   -0.130272   -0.003627
      2          6           0        0.676852    0.021564    0.002124
      3          1           0        1.017288    0.048946    1.041464
      4          1           0        0.936356    0.938701   -0.535273
      5          1           0        1.106604   -0.844524   -0.510788
      6          1           0       -1.121726    0.769670    0.020866
 ---------------------------------------------------------------------

 SCF Done:  E(RHF) =  -115.087877887     a.u. after    8 cycles
 E2 =    -0.3922663644D+00 EUMP2 =    -0.11548014425171D+03

 The electronic state is 1-A.
 Alpha  occ. eigenvalues --  -20.56183 -11.27049  -1.35486  -0.92092  -0.68704
 Alpha  occ. eigenvalues --   -0.62202  -0.59270  -0.50635  -0.45362
 Alpha virt. eigenvalues --    0.04445   0.06803   0.07670   0.08062   0.12629
 Alpha virt. eigenvalues --    0.15481   0.15740   0.18647   0.25916   0.27184
 Alpha virt. eigenvalues --    0.28297   0.30289   0.30671   0.32776   0.34453

 Mulliken atomic charges:
              1
     1  O   -0.562570
     2  C    0.140429
     3  H    0.045955
     4  H    0.043513
     5  H    0.048238
     6  H    0.284437
 Sum of Mulliken atomic charges =   0.00000

 Dipole moment (field-independent basis, Debye):
    X=              1.2544    Y=              1.9471    Z=              0.0212  Tot=              2.3163
 Quadrupole moment (field-independent basis, Debye-Ang):
   XX=            -13.1469   YY=            -11.9481   ZZ=            -13.6845
   XY=             -2.4772   XZ=             -0.1416   YZ=              0.0159

 Normal termination of Gaussian 09 at Sun Dec 29 12:27:50 2019.
