 Gaussian 09, Revision A.02,
 Gaussian 09:  EM64L-G09RevA.02 11-Jun-2009

 ----------------------------------------------
 #P opt=(,maxcycle=400) HF/6-31G* MaxDisk=100GB
 ----------------------------------------------

 ---------------------------------------------------------------
 methanol Rotatable Bond Optimization on bme-nova.bme.utexas.edu
 ---------------------------------------------------------------
 Symbolic Z-matrix:
 Charge =  0 Multiplicity = 1

 SCF Done:  E(RHF) =  -115.031809474     A.U. after   11 cycles
 SCF Done:  E(RHF) =  -115.034302530     A.U. after   11 cycles
 SCF Done:  E(RHF) =  -115.034733596     A.U. after   10 cycles
 SCF Done:  E(RHF) =  -115.035104448     A.U. after   12 cycles
 SCF Done:  E(RHF) =  -115.035318725     A.U. after   11 cycles
 SCF Done:  E(RHF) =  -115.035392013     A.U. after   10 cycles
 SCF Done:  E(RHF) =  -115.035416052     A.U. after   12 cycles
 SCF Done:  E(RHF) =  -115.035418149     A.U. after    9 cycles
 SCF Done:  E(RHF) =  -115.035418312     A.U. after   12 cycles
 Optimization completed.
    -- Stationary point found.

                         Standard orientation:
 ---------------------------------------------------------------------
 Center     Atomic      Atomic             Coordinates (Angstroms)
 Number     Number       Type             X           Y           Z
 ---------------------------------------------------------------------
      1          8           0       -0.737004    0.120602    0.000000
      2          6           0        0.655596   -0.019723   -0.000001
      3          1           0        1.076772    0.975921   -0.000445
      4          1           0        1.012812   -0.543788   -0.883325
      5          1           0        1.012895   -0.543019    0.883751
      6          1           0       -1.140026   -0.735588    0.000019
 ---------------------------------------------------------------------

 The electronic state is 1-A.
 Alpha  occ. eigenvalues --  -20.55538 -11.26675  -1.36027  -0.92684  -0.69363
 Alpha  occ. eigenvalues --   -0.62086  -0.59534  -0.49733  -0.44328
 Alpha virt. eigenvalues --    0.22683   0.28034   0.32379   0.33056   0.38755
 Alpha virt. eigenvalues --    0.76236   0.77450   0.79850   1.05529   1.13007
 Alpha virt. eigenvalues --    1.15183   1.18946   1.21806   1.25375   1.27028

 Mulliken atomic charges:
              1
     1  O   -0.726169
     2  C   -0.166513
     3  H    0.174419
     4  H    0.140521
     5  H    0.140526
     6  H    0.437216
 Sum of Mulliken atomic charges =   0.00000

 Dipole moment (field-independent basis, Debye):
    X=              0.8946    Y=             -1.6385    Z=              0.0000  Tot=              1.8668
 Quadrupole moment (field-independent basis, Debye-Ang):
   XX=            -12.5719   YY=            -12.0517   ZZ=            -13.6326
   XY=              2.3470   XZ=             -0.0001   YZ=             -0.0001

 Normal termination of Gaussian 09 at Sat Dec 21 15:23:18 2019.
