 Gaussian 09, Revision A.02,
 Gaussian 09:  EM64L-G09RevA.02 11-Jun-2009

 ----------------------------------------------
 #P opt=(,maxcycle=400) HF/6-31G* MaxDisk=100GB
 ----------------------------------------------

 ---------------------------------------------------------------
 methanol Rotatable Bond Optimization on bme-nova.bme.utexas.edu
 ---------------------------------------------------------------
 Symbolic Z-matrix:
 Charge =  0 Multiplicity = 1

 SCF Done:  E(RHF) =  -115.032014833     A.U. after   11 cycles
 SCF Done:  E(RHF) =  -115.034353566     A.U. after   11 cycles
 SCF Done:  E(RHF) =  -115.034754355     A.U. after   10 cycles
 SCF Done:  E(RHF) =  -115.035124332     A.U. after   12 cycles
 SCF Done:  E(RHF) =  -115.035319799     A.U. after   10 cycles
 SCF Done:  E(RHF) =  -115.035394940     A.U. after   10 cycles
 SCF Done:  E(RHF) =  -115.035416139     A.U. after   12 cycles
 SCF Done:  E(RHF) =  -115.035418128     A.U. after    9 cycles
 SCF Done:  E(RHF) =  -115.035418310     A.U. after   12 cycles
 Optimization completed.
    -- Stationary point found.

                         Standard orientation:
 ---------------------------------------------------------------------
 Center     Atomic      Atomic             Coordinates (Angstroms)
 Number     Number       Type             X           Y           Z
 ---------------------------------------------------------------------
      1          8           0        0.737007    0.120605    0.000000
      2          6           0       -0.655601   -0.019726    0.000000
      3          1           0       -1.012863   -0.543093    0.883718
      4          1           0       -1.012823   -0.543714   -0.883365
      5          1           0       -1.076804    0.975909   -0.000359
      6          1           0        1.140039   -0.735580    0.000008
 ---------------------------------------------------------------------

 The electronic state is 1-A.
 Alpha  occ. eigenvalues --  -20.55538 -11.26675  -1.36026  -0.92684  -0.69362
 Alpha  occ. eigenvalues --   -0.62086  -0.59534  -0.49733  -0.44328
 Alpha virt. eigenvalues --    0.22683   0.28034   0.32379   0.33056   0.38754
 Alpha virt. eigenvalues --    0.76236   0.77450   0.79850   1.05529   1.13007
 Alpha virt. eigenvalues --    1.15182   1.18946   1.21806   1.25375   1.27029

 Mulliken atomic charges:
              1
     1  O   -0.726175
     2  C   -0.166513
     3  H    0.140529
     4  H    0.140524
     5  H    0.174418
     6  H    0.437216
 Sum of Mulliken atomic charges =   0.00000

 Dipole moment (field-independent basis, Debye):
    X=             -0.8947    Y=             -1.6385    Z=              0.0000  Tot=              1.8669
 Quadrupole moment (field-independent basis, Debye-Ang):
   XX=            -12.5718   YY=            -12.0517   ZZ=            -13.6325
   XY=             -2.3470   XZ=              0.0001   YZ=             -0.0001

 Normal termination of Gaussian 09 at Sat Dec 21 15:21:20 2019.
