 Gaussian 09, Revision A.02,
 Gaussian 09:  EM64L-G09RevA.02 11-Jun-2009

 -------------------------------------------------------------------
 #P MP2/6-311++G** SP SCF=(qc,maxcycle=800) Guess=Indo MaxDisk=100GB
 -------------------------------------------------------------------

 -----------------------------------------------------------------
 methanol Rotatable Bond SP Calculation on bme-nova.bme.utexas.edu
 -----------------------------------------------------------------
 Symbolic Z-matrix:
 Charge =  0 Multiplicity = 1

                         Standard orientation:
 ---------------------------------------------------------------------
 Center     Atomic      Atomic             Coordinates (Angstroms)
 Number     Number       Type             X           Y           Z
 ---------------------------------------------------------------------
      1          8           0       -0.743927   -0.129954   -0.000102
      2          6           0        0.675162    0.020252   -0.002930
      3          1           0        0.930333    0.956018   -0.512996
      4          1           0        1.106109   -0.851397   -0.507665
      5          1           0        1.004674    0.058179    1.041922
      6          1           0       -1.140674    0.755324   -0.002859
 ---------------------------------------------------------------------

 SCF Done:  E(RHF) =  -115.076872481     a.u. after    8 cycles
 E2 =    -0.3660811285D+00 EUMP2 =    -0.11544295361000D+03

 The electronic state is 1-A.
 Alpha  occ. eigenvalues --  -20.55487 -11.27607  -1.35335  -0.92376  -0.68764
 Alpha  occ. eigenvalues --   -0.62117  -0.59400  -0.50361  -0.44789
 Alpha virt. eigenvalues --    0.03876   0.06366   0.07404   0.08002   0.12646
 Alpha virt. eigenvalues --    0.14674   0.15677   0.18369   0.25829   0.28722
 Alpha virt. eigenvalues --    0.29516   0.30557   0.30720   0.33768   0.35570

 Mulliken atomic charges:
              1
     1  O   -0.387345
     2  C   -0.218456
     3  H    0.098302
     4  H    0.130775
     5  H    0.120347
     6  H    0.256378
 Sum of Mulliken atomic charges =   0.00000

 Dipole moment (field-independent basis, Debye):
    X=              1.0912    Y=              1.7516    Z=             -0.0320  Tot=              2.0639
 Quadrupole moment (field-independent basis, Debye-Ang):
   XX=            -13.1973   YY=            -12.0989   ZZ=            -13.7293
   XY=             -2.4914   XZ=             -0.0725   YZ=              0.0257

 Normal termination of Gaussian 09 at Sat Dec 21 15:27:02 2019.
