 Gaussian 09, Revision A.02,
 Gaussian 09:  EM64L-G09RevA.02 11-Jun-2009

 -------------------------------------------------------------------
 #P MP2/6-311++G** SP SCF=(qc,maxcycle=800) Guess=Indo MaxDisk=100GB
 -------------------------------------------------------------------

 -----------------------------------------------------------------
 methanol Rotatable Bond SP Calculation on bme-nova.bme.utexas.edu
 -----------------------------------------------------------------
 Symbolic Z-matrix:
 Charge =  0 Multiplicity = 1

                         Standard orientation:
 ---------------------------------------------------------------------
 Center     Atomic      Atomic             Coordinates (Angstroms)
 Number     Number       Type             X           Y           Z
 ---------------------------------------------------------------------
      1          8           0       -0.743852   -0.129573   -0.003567
      2          6           0        0.674940    0.022650    0.002160
      3          1           0        1.013639    0.015519    1.044188
      4          1           0        0.931385    0.959466   -0.505335
      5          1           0        1.097641   -0.829326   -0.542649
      6          1           0       -1.141484    0.755023    0.019368
 ---------------------------------------------------------------------

 SCF Done:  E(RHF) =  -115.077064562     a.u. after    8 cycles
 E2 =    -0.3661036289D+00 EUMP2 =    -0.11544316819077D+03

 The electronic state is 1-A.
 Alpha  occ. eigenvalues --  -20.55497 -11.27593  -1.35339  -0.92377  -0.68680
 Alpha  occ. eigenvalues --   -0.62340  -0.59276  -0.50194  -0.44928
 Alpha virt. eigenvalues --    0.03885   0.06373   0.07362   0.08038   0.12643
 Alpha virt. eigenvalues --    0.14639   0.15740   0.18371   0.25789   0.28724
 Alpha virt. eigenvalues --    0.29528   0.30520   0.30713   0.33815   0.35565

 Mulliken atomic charges:
              1
     1  O   -0.387764
     2  C   -0.217817
     3  H    0.119887
     4  H    0.098208
     5  H    0.131236
     6  H    0.256251
 Sum of Mulliken atomic charges =   0.00000

 Dipole moment (field-independent basis, Debye):
    X=              1.0889    Y=              1.7506    Z=              0.0163  Tot=              2.0617
 Quadrupole moment (field-independent basis, Debye-Ang):
   XX=            -13.1952   YY=            -12.1572   ZZ=            -13.6681
   XY=             -2.4786   XZ=             -0.1365   YZ=              0.0375

 Normal termination of Gaussian 09 at Sat Dec 21 15:29:09 2019.
