 Gaussian 09, Revision A.02,
 Gaussian 09:  EM64L-G09RevA.02 11-Jun-2009

 ----------------------------------------------
 #P opt=(,maxcycle=400) HF/6-31G* MaxDisk=100GB
 ----------------------------------------------

 ---------------------------------------------------------------
 methanol Rotatable Bond Optimization on bme-nova.bme.utexas.edu
 ---------------------------------------------------------------
 Symbolic Z-matrix:
 Charge =  0 Multiplicity = 1

 SCF Done:  E(RHF) =  -115.032713640     A.U. after   11 cycles
 SCF Done:  E(RHF) =  -115.035162565     A.U. after   11 cycles
 SCF Done:  E(RHF) =  -115.035407355     A.U. after   12 cycles
 SCF Done:  E(RHF) =  -115.035417598     A.U. after    9 cycles
 SCF Done:  E(RHF) =  -115.035418284     A.U. after    8 cycles
 Optimization completed.
    -- Stationary point found.

                         Standard orientation:
 ---------------------------------------------------------------------
 Center     Atomic      Atomic             Coordinates (Angstroms)
 Number     Number       Type             X           Y           Z
 ---------------------------------------------------------------------
      1          8           0       -0.737003    0.120610   -0.000001
      2          6           0        0.655566   -0.019737   -0.000006
      3          1           0        1.012962   -0.543214    0.883701
      4          1           0        1.076870    0.975935   -0.000205
      5          1           0        1.012982   -0.543594   -0.883450
      6          1           0       -1.140184   -0.735584   -0.000003
 ---------------------------------------------------------------------

 The electronic state is 1-A.
 Alpha  occ. eigenvalues --  -20.55540 -11.26677  -1.36026  -0.92682  -0.69362
 Alpha  occ. eigenvalues --   -0.62084  -0.59534  -0.49731  -0.44328
 Alpha virt. eigenvalues --    0.22683   0.28031   0.32377   0.33056   0.38756
 Alpha virt. eigenvalues --    0.76238   0.77454   0.79851   1.05522   1.13000
 Alpha virt. eigenvalues --    1.15182   1.18941   1.21799   1.25376   1.27025

 Mulliken atomic charges:
              1
     1  O   -0.726143
     2  C   -0.166504
     3  H    0.140505
     4  H    0.174405
     5  H    0.140511
     6  H    0.437226
 Sum of Mulliken atomic charges =   0.00000

 Dipole moment (field-independent basis, Debye):
    X=              0.8942    Y=             -1.6385    Z=             -0.0001  Tot=              1.8666
 Quadrupole moment (field-independent basis, Debye-Ang):
   XX=            -12.5711   YY=            -12.0523   ZZ=            -13.6330
   XY=              2.3473   XZ=             -0.0001   YZ=              0.0000

 Normal termination of Gaussian 09 at Sat Dec 21 15:25:51 2019.
