 Gaussian 09, Revision A.02,
 Gaussian 09:  EM64L-G09RevA.02 11-Jun-2009

 ----------------------------------------------
 #P opt=(,maxcycle=400) HF/6-31G* MaxDisk=100GB
 ----------------------------------------------

 ---------------------------------------------------------------
 methanol Rotatable Bond Optimization on bme-nova.bme.utexas.edu
 ---------------------------------------------------------------
 Symbolic Z-matrix:
 Charge =  0 Multiplicity = 1

 SCF Done:  E(RHF) =  -115.030894431     A.U. after   11 cycles
 SCF Done:  E(RHF) =  -115.033072729     A.U. after   12 cycles
 SCF Done:  E(RHF) =  -115.033242603     A.U. after   12 cycles
 SCF Done:  E(RHF) =  -115.033251957     A.U. after   12 cycles
 Optimization completed.
    -- Stationary point found.

                         Standard orientation:
 ---------------------------------------------------------------------
 Center     Atomic      Atomic             Coordinates (Angstroms)
 Number     Number       Type             X           Y           Z
 ---------------------------------------------------------------------
      1          8           0       -0.738518   -0.122724    0.000000
      2          6           0        0.657889    0.018651    0.000000
      3          1           0        1.074752   -0.458004   -0.880397
      4          1           0        1.074752   -0.458004    0.880397
      5          1           0        0.964497    1.060247    0.000000
      6          1           0       -1.153193    0.725651    0.000000
 ---------------------------------------------------------------------

 The electronic state is 1-A.
 Alpha  occ. eigenvalues --  -20.55313 -11.26686  -1.35784  -0.92722  -0.69343
 Alpha  occ. eigenvalues --   -0.61915  -0.59597  -0.49682  -0.44092
 Alpha virt. eigenvalues --    0.22196   0.27836   0.32584   0.33193   0.39534
 Alpha virt. eigenvalues --    0.76315   0.76385   0.79689   1.08406   1.13527
 Alpha virt. eigenvalues --    1.13555   1.18390   1.21833   1.25008   1.27283

 Mulliken atomic charges:
              1
     1  O   -0.734920
     2  C   -0.161524
     3  H    0.158474
     4  H    0.158474
     5  H    0.137656
     6  H    0.441839
 Sum of Mulliken atomic charges =   0.00000

 Dipole moment (field-independent basis, Debye):
    X=              0.8804    Y=              1.7504    Z=              0.0000  Tot=              1.9593
 Quadrupole moment (field-independent basis, Debye-Ang):
   XX=            -12.5107   YY=            -12.1470   ZZ=            -13.5402
   XY=             -2.2528   XZ=              0.0000   YZ=              0.0000

 Normal termination of Gaussian 09 at Sat Dec 21 15:25:54 2019.
