                               Psi4 1.3.2 release

  ==> Input File <==

--------------------------------------------------------------------------
molecule {
0 1
O            0.623442605227    -1.148810273012    -0.204080799267
N            0.737116826723     1.103895199402     0.103461024405
C           -1.453554284667     0.053453402637     0.078840229559
C            0.051403024279    -0.079859259384    -0.011455910789
H           -1.900046417352    -0.914034990431    -0.144497977475
H           -1.751573738560     0.361881974188     1.085463042084
H           -1.822380911860     0.800879955017    -0.628419620676
H            1.741406626867     1.034601323733     0.201668255488
H            0.291523342495     1.925627893661     0.484839430861
}
memory 5GB
set_num_threads(4)
psi4_io.set_default_path("/scratch/bdw2292")
set freeze_core True
E, wfn = energy('mp2/6-311G**',return_wfn=True)
gdma(wfn)
fchk(wfn, "acetamide-dma.fchk")
clean()
--------------------------------------------------------------------------

    Molecular point group: c1

    Geometry (in Angstrom), charge = 0, multiplicity = 1:

       Center              X                  Y                   Z               Mass
    ------------   -----------------  -----------------  -----------------  -----------------
         O            0.623442605227    -1.148810273012    -0.204080799267    15.994914619570
         N            0.737116826723     1.103895199402     0.103461024405    14.003074004430
         C           -1.453554284667     0.053453402637     0.078840229559    12.000000000000
         C            0.051403024279    -0.079859259384    -0.011455910789    12.000000000000
         H           -1.900046417352    -0.914034990431    -0.144497977475     1.007825032230
         H           -1.751573738560     0.361881974188     1.085463042084     1.007825032230
         H           -1.822380911860     0.800879955017    -0.628419620676     1.007825032230
         H            1.741406626867     1.034601323733     0.201668255488     1.007825032230
         H            0.291523342495     1.925627893661     0.484839430861     1.007825032230

  Charge       = 0
  Multiplicity = 1
  Basis Set: 6-311G**
    Blend: 6-311G**
  Basis Set: (6-311G** AUX)
    Blend: CC-PVTZ-JKFIT

    Orbital Energies [Eh]
    ---------------------

    Doubly Occupied:

       1A    -20.511712     2A    -15.579024     3A    -11.353879
       4A    -11.239156     5A     -1.371930     6A     -1.206337
       7A     -1.004423     8A     -0.793034     9A     -0.717371
      10A     -0.660415    11A     -0.613625    12A     -0.581454
      13A     -0.559459    14A     -0.522107    15A     -0.423439
      16A     -0.411104

  @DF-RHF Final Energy:  -208.03346771782850

   => Energetics <=

    Nuclear Repulsion Energy =            121.3031414881723720
    One-Electron Energy =                -523.5762785518974169
    Two-Electron Energy =                 194.2396693458965160
    Total Energy =                       -208.0334677178285006

  Dipole Moment: [D]
     X:    -1.3740      Y:     3.7372      Z:     1.2941     Total:     4.1868

  Basis Set: (6-311G** AUX)
    Blend: CC-PVTZ-RI
	 Reference Energy          =    -208.0334677178285006 [Eh]
	 Singles Energy            =      -0.0000000000000000 [Eh]
	 Same-Spin Energy          =      -0.1685411660314845 [Eh]
	 Opposite-Spin Energy      =      -0.4955175530343165 [Eh]
	 Correlation Energy        =      -0.6640587190658011 [Eh]
	 Total Energy              =    -208.6975264368942931 [Eh]

	 ================> DF-SCS-MP2 Energies <==================
	-----------------------------------------------------------
	 SCS Same-Spin Scale       =       0.3333333333333333 [-]
	 SCS Opposite-Spin Scale   =       1.2000000000000000 [-]
	 SCS Same-Spin Energy      =      -0.0561803886771615 [Eh]
	 SCS Opposite-Spin Energy  =      -0.5946210636411798 [Eh]
	 SCS Correlation Energy    =      -0.6508014523183413 [Eh]
	 SCS Total Energy          =    -208.6842691701468482 [Eh]
	-----------------------------------------------------------

*** Psi4 exiting successfully. Buy a developer a beer!
