                               Psi4 1.3.2 release

  ==> Input File <==

--------------------------------------------------------------------------
molecule {
0 1
O            0.623442605227    -1.148810273012    -0.204080799267
N            0.737116826723     1.103895199402     0.103461024405
C           -1.453554284667     0.053453402637     0.078840229559
C            0.051403024279    -0.079859259384    -0.011455910789
H           -1.900046417352    -0.914034990431    -0.144497977475
H           -1.751573738560     0.361881974188     1.085463042084
H           -1.822380911860     0.800879955017    -0.628419620676
H            1.741406626867     1.034601323733     0.201668255488
H            0.291523342495     1.925627893661     0.484839430861
}
memory 5GB
set_num_threads(4)
psi4_io.set_default_path("/scratch/bdw2292")
set freeze_core True
E, wfn = energy('mp2/6-311++G(2d,2p)',return_wfn=True)
oeprop(wfn,"DIPOLE","GRID_ESP")
clean()
--------------------------------------------------------------------------

    Molecular point group: c1

    Geometry (in Angstrom), charge = 0, multiplicity = 1:

       Center              X                  Y                   Z               Mass
    ------------   -----------------  -----------------  -----------------  -----------------
         O            0.623442605227    -1.148810273012    -0.204080799267    15.994914619570
         N            0.737116826723     1.103895199402     0.103461024405    14.003074004430
         C           -1.453554284667     0.053453402637     0.078840229559    12.000000000000
         C            0.051403024279    -0.079859259384    -0.011455910789    12.000000000000
         H           -1.900046417352    -0.914034990431    -0.144497977475     1.007825032230
         H           -1.751573738560     0.361881974188     1.085463042084     1.007825032230
         H           -1.822380911860     0.800879955017    -0.628419620676     1.007825032230
         H            1.741406626867     1.034601323733     0.201668255488     1.007825032230
         H            0.291523342495     1.925627893661     0.484839430861     1.007825032230

  Charge       = 0
  Multiplicity = 1
  Basis Set: 6-311++G(2D,2P)
    Blend: 6-311++G(2D,2P)
  Basis Set: (6-311++G(2D,2P) AUX)
    Blend: AUG-CC-PVTZ-JKFIT

    Orbital Energies [Eh]
    ---------------------

    Doubly Occupied:

       1A    -20.523327     2A    -15.586821     3A    -11.358716
       4A    -11.240068     5A     -1.378028     6A     -1.212005
       7A     -1.006911     8A     -0.798214     9A     -0.722342
      10A     -0.665511    11A     -0.616549    12A     -0.587341
      13A     -0.561982    14A     -0.525537    15A     -0.429391
      16A     -0.416510

  @DF-RHF Final Energy:  -208.04816197539549

   => Energetics <=

    Nuclear Repulsion Energy =            121.3031414881723720
    One-Electron Energy =                -523.4441003403204604
    Two-Electron Energy =                 194.0927968767525726
    Total Energy =                       -208.0481619753954874
  Basis Set: (6-311++G(2D,2P) AUX)
    Blend: AUG-CC-PVTZ-RI
	 Reference Energy          =    -208.0481619753954874 [Eh]
	 Singles Energy            =      -0.0000000000000000 [Eh]
	 Same-Spin Energy          =      -0.1803411004570518 [Eh]
	 Opposite-Spin Energy      =      -0.5316505226556855 [Eh]
	 Correlation Energy        =      -0.7119916231127372 [Eh]
	 Total Energy              =    -208.7601535985082251 [Eh]

	 ================> DF-SCS-MP2 Energies <==================
	-----------------------------------------------------------
	 SCS Same-Spin Scale       =       0.3333333333333333 [-]
	 SCS Opposite-Spin Scale   =       1.2000000000000000 [-]
	 SCS Same-Spin Energy      =      -0.0601137001523506 [Eh]
	 SCS Opposite-Spin Energy  =      -0.6379806271868226 [Eh]
	 SCS Correlation Energy    =      -0.6980943273391732 [Eh]
	 SCS Total Energy          =    -208.7462563027346505 [Eh]
	-----------------------------------------------------------

  Dipole Moment: [D]
     X:    -1.4694      Y:     3.7942      Z:     1.2690     Total:     4.2621

*** Psi4 exiting successfully. Buy a developer a beer!
