                               Psi4 1.3.2 release

  ==> Input File <==

--------------------------------------------------------------------------
molecule {
0 1
 O    0.607300   -1.165700    0.001800
 N    0.752200    1.130600    0.001500
 C   -1.427500    0.096900    0.001300
 C    0.068000   -0.061800   -0.004600
 H   -1.876800   -0.690600   -0.610100
 H   -1.791700    0.014000    1.028800
 H   -1.727400    1.065500   -0.408400
 H    1.766700    1.149200    0.003100
 H    0.281500    2.029800    0.008100
}
memory 5GB
set_num_threads(4)
psi4_io.set_default_path("/scratch/bdw2292")
optimize('mp2/6-31G*')
clean()
--------------------------------------------------------------------------

    Molecular point group: c1
  Charge       = 0
  Multiplicity = 1
  Basis Set: 6-31G*
    Blend: 6-31G*
  Basis Set: (6-31G* AUX)
    Blend: CC-PVDZ-JKFIT
  @DF-RHF Final Energy:  -207.97158263411114
    Total Energy =                       -207.9715826341111438
  Basis Set: (6-31G* AUX)
    Blend: CC-PVDZ-RI
    Molecular point group: c1
  Basis Set: 6-31G*
    Blend: 6-31G*
  Basis Set: (6-31G* AUX)
    Blend: CC-PVDZ-JKFIT
  Basis Set: (6-31G* AUX)
    Blend: CC-PVDZ-JKFIT
	 Reference Energy          =    -207.9715826341111438 [Eh]
	 Singles Energy            =      -0.0000000000000000 [Eh]
	 Same-Spin Energy          =      -0.1584563607376775 [Eh]
	 Opposite-Spin Energy      =      -0.4534023056650884 [Eh]
	 Correlation Energy        =      -0.6118586664027659 [Eh]
	 Total Energy              =    -208.5834413005138970 [Eh]
	 SCS Total Energy          =    -208.5684841878218094 [Eh]
  @DF-RHF Final Energy:  -207.97284015786423
    Total Energy =                       -207.9728401578642263
  @DF-RHF Final Energy:  -207.97258245905650
    Total Energy =                       -207.9725824590564969
  @DF-RHF Final Energy:  -207.97314420321038
    Total Energy =                       -207.9731442032103814
  @DF-RHF Final Energy:  -207.97324812106945
    Total Energy =                       -207.9732481210694459
  @DF-RHF Final Energy:  -207.97328234665389
    Total Energy =                       -207.9732823466538889
  @DF-RHF Final Energy:  -207.97316438454905
    Total Energy =                       -207.9731643845490510
  @DF-RHF Final Energy:  -207.97299147959615
    Total Energy =                       -207.9729914795961463
  @DF-RHF Final Energy:  -207.97317435154014
    Total Energy =                       -207.9731743515401376
  @DF-RHF Final Energy:  -207.97296151402756
    Total Energy =                       -207.9729615140275598
  @DF-RHF Final Energy:  -207.97292754453534
    Total Energy =                       -207.9729275445353380
  @DF-RHF Final Energy:  -207.97322654459401
    Total Energy =                       -207.9732265445940129
  @DF-RHF Final Energy:  -207.97331317769670
    Total Energy =                       -207.9733131776966957
  @DF-RHF Final Energy:  -207.97329066518355
    Total Energy =                       -207.9732906651835549
  @DF-RHF Final Energy:  -207.97323605191977
    Total Energy =                       -207.9732360519197698
  @DF-RHF Final Energy:  -207.97323631249782
    Total Energy =                       -207.9732363124978178
  @DF-RHF Final Energy:  -207.97322357993809
    Total Energy =                       -207.9732235799380931
  @DF-RHF Final Energy:  -207.97321371973899
    Total Energy =                       -207.9732137197389932
  @DF-RHF Final Energy:  -207.97317563441581
    Total Energy =                       -207.9731756344158100
  Charge       = 0
  Multiplicity = 1
  Basis Set: 6-31G*
    Blend: 6-31G*
  Basis Set: (6-31G* AUX)
    Blend: CC-PVDZ-JKFIT

    Orbital Energies [Eh]
    ---------------------

    Doubly Occupied:

       1A    -20.523889     2A    -15.586954     3A    -11.356009
       4A    -11.238656     5A     -1.369786     6A     -1.205149
       7A     -1.003830     8A     -0.791904     9A     -0.716822
      10A     -0.658029    11A     -0.612522    12A     -0.578766
      13A     -0.559133    14A     -0.520450    15A     -0.420396
      16A     -0.407659

  @DF-RHF Final Energy:  -207.97319031808615

   => Energetics <=

    Nuclear Repulsion Energy =            121.3031414881814243
    One-Electron Energy =                -523.4527573903656048
    Two-Electron Energy =                 194.1764255840980127
    Total Energy =                       -207.9731903180861536

  Dipole Moment: [D]
     X:    -1.3460      Y:     3.6952      Z:     1.3495     Total:     4.1578

  Basis Set: (6-31G* AUX)
    Blend: CC-PVDZ-RI
    Molecular point group: c1
  Basis Set: 6-31G*
    Blend: 6-31G*
  Basis Set: (6-31G* AUX)
    Blend: CC-PVDZ-JKFIT
  Basis Set: (6-31G* AUX)
    Blend: CC-PVDZ-JKFIT
	 Reference Energy          =    -207.9731903180861536 [Eh]
	 Singles Energy            =      -0.0000000000000000 [Eh]
	 Same-Spin Energy          =      -0.1582526847573070 [Eh]
	 Opposite-Spin Energy      =      -0.4530481303067775 [Eh]
	 Correlation Energy        =      -0.6113008150640846 [Eh]
	 Total Energy              =    -208.5844911331502374 [Eh]

	 ================> DF-SCS-MP2 Energies <==================
	-----------------------------------------------------------
	 SCS Same-Spin Scale       =       0.3333333333333333 [-]
	 SCS Opposite-Spin Scale   =       1.2000000000000000 [-]
	 SCS Same-Spin Energy      =      -0.0527508949191023 [Eh]
	 SCS Opposite-Spin Energy  =      -0.5436577563681331 [Eh]
	 SCS Correlation Energy    =      -0.5964086512872354 [Eh]
	 SCS Total Energy          =    -208.5695989693734020 [Eh]
	-----------------------------------------------------------

  -Total Gradient:
     Atom            X                  Y                   Z
    ------   -----------------  -----------------  -----------------
       1       -0.000018652379     0.000002810644     0.000004423942
       2        0.000017530242     0.000040476910     0.000007796876
       3        0.000042105676    -0.000009334897    -0.000013009169
       4       -0.000022570441    -0.000029200151     0.000002104214
       5       -0.000019502433    -0.000026315095    -0.000008958468
       6       -0.000005060276     0.000002857609     0.000024553187
       7       -0.000005909363     0.000009528455    -0.000013339051
       8        0.000027744446    -0.000013360432    -0.000011433786
       9       -0.000015685474     0.000022536959     0.000007862256

  **** Optimization is complete! (in 20 steps) ****
    Final optimized geometry and variables:
    Molecular point group: c1

    Geometry (in Angstrom), charge = 0, multiplicity = 1:

    O            0.623442605227    -1.148810273012    -0.204080799267
    N            0.737116826723     1.103895199402     0.103461024405
    C           -1.453554284667     0.053453402637     0.078840229559
    C            0.051403024279    -0.079859259384    -0.011455910789
    H           -1.900046417352    -0.914034990431    -0.144497977475
    H           -1.751573738560     0.361881974188     1.085463042084
    H           -1.822380911860     0.800879955017    -0.628419620676
    H            1.741406626867     1.034601323733     0.201668255488
    H            0.291523342495     1.925627893661     0.484839430861

*** Psi4 exiting successfully. Buy a developer a beer!
