 Gaussian 09, Revision A.02,
 Gaussian 09:  EM64L-G09RevA.02 11-Jun-2009

 -------------------------------------------
 #P MP2/6-311G** Sp Density=MP2 MaxDisk=20GB
 -------------------------------------------

 ------------------------------------------------------------
 methylamine Gaussian Optimization on bme-nova.bme.utexas.edu
 ------------------------------------------------------------
 Symbolic Z-matrix:
 Charge =  0 Multiplicity = 1

                         Standard orientation:
 ---------------------------------------------------------------------
 Center     Atomic      Atomic             Coordinates (Angstroms)
 Number     Number       Type             X           Y           Z
 ---------------------------------------------------------------------
      1          7           0        0.751098    0.000000   -0.125814
      2          6           0       -0.706357    0.000000    0.017571
      3          1           0       -1.078685   -0.000036    1.053112
      4          1           0       -1.110710   -0.880985   -0.486208
      5          1           0       -1.110702    0.881025   -0.486143
      6          1           0        1.140279   -0.812602    0.347256
      7          1           0        1.140277    0.812602    0.347256
 ---------------------------------------------------------------------

 SCF Done:  E(RHF) =  -95.2417413028     A.U. after   11 cycles
 E2 =    -0.3456856337D+00 EUMP2 =    -0.95587426936508D+02

 The electronic state is 1-A.
 Alpha  occ. eigenvalues --  -15.53132 -11.24066  -1.16477  -0.89175  -0.65666
 Alpha  occ. eigenvalues --   -0.59993  -0.55089  -0.51366  -0.38906
 Alpha virt. eigenvalues --    0.15649   0.19283   0.20972   0.23152   0.25751
 Alpha virt. eigenvalues --    0.37561   0.46381   0.48432   0.54694   0.55928
 Alpha virt. eigenvalues --    0.70403   0.75848   0.80666   0.80784   0.85290

 Mulliken atomic charges:
              1
     1  N   -0.473188
     2  C   -0.179852
     3  H    0.079494
     4  H    0.104111
     5  H    0.104110
     6  H    0.182663
     7  H    0.182663
 Sum of Mulliken atomic charges =   0.00000

 Dipole moment (field-independent basis, Debye):
    X=             -0.2444    Y=              0.0000    Z=              1.4055  Tot=              1.4266
 Quadrupole moment (field-independent basis, Debye-Ang):
   XX=            -13.9873   YY=            -12.7311   ZZ=            -15.3683
   XY=              0.0000   XZ=              2.0492   YZ=              0.0000

 Normal termination of Gaussian 09 at Sat Dec 28 15:47:31 2019.
