 Gaussian 09, Revision A.02,
 Gaussian 09:  EM64L-G09RevA.02 11-Jun-2009

 --------------------------------------------
 #P MP2/6-311G** Sp Density=MP2 MaxDisk=100GB
 --------------------------------------------

 ---------------------------------------------------------
 methanol Gaussian Optimization on bme-nova.bme.utexas.edu
 ---------------------------------------------------------
 Symbolic Z-matrix:
 Charge =  0 Multiplicity = 1

                         Standard orientation:
 ---------------------------------------------------------------------
 Center     Atomic      Atomic             Coordinates (Angstroms)
 Number     Number       Type             X           Y           Z
 ---------------------------------------------------------------------
      1          8           0        0.750867    0.122706    0.000000
      2          6           0       -0.666540   -0.019469    0.000000
      3          1           0       -1.031969   -0.543037    0.892105
      4          1           0       -1.031967   -0.543052   -0.892097
      5          1           0       -1.074559    0.991201   -0.000008
      6          1           0        1.130797   -0.769944    0.000000
 ---------------------------------------------------------------------

 SCF Done:  E(RHF) =  -115.074150973     A.U. after   11 cycles
 E2 =    -0.3620403432D+00 EUMP2 =    -0.11543619131573D+03

 The electronic state is 1-A.
 Alpha  occ. eigenvalues --  -20.54593 -11.27087  -1.34779  -0.92126  -0.68325
 Alpha  occ. eigenvalues --   -0.61533  -0.58613  -0.49996  -0.44675
 Alpha virt. eigenvalues --    0.15323   0.18743   0.22522   0.23122   0.34116
 Alpha virt. eigenvalues --    0.45416   0.47867   0.57831   0.67906   0.72556
 Alpha virt. eigenvalues --    0.78426   0.79675   0.89970   1.02370   1.05238

 Mulliken atomic charges:
              1
     1  O   -0.413057
     2  C   -0.083507
     3  H    0.080781
     4  H    0.080781
     5  H    0.103628
     6  H    0.231373
 Sum of Mulliken atomic charges =   0.00000

 Dipole moment (field-independent basis, Debye):
    X=             -0.8457    Y=             -1.5361    Z=              0.0000  Tot=              1.7535
 Quadrupole moment (field-independent basis, Debye-Ang):
   XX=            -12.8711   YY=            -12.1768   ZZ=            -13.7504
   XY=             -2.2225   XZ=              0.0000   YZ=              0.0000

 Normal termination of Gaussian 09 at Fri Dec 20 15:06:06 2019.
