 Gaussian 09, Revision A.02,
 Gaussian 09:  EM64L-G09RevA.02 11-Jun-2009

 ----------------------------------------------------------------------
 #P MP2/6-311++G(2d,2p) Sp Density=MP2 SCF=Save Guess=Huckel MaxDisk=10
 0GB
 ----------------------------------------------------------------------

 -----------------------------------------------------------
 methanol Gaussian SP Calculation on bme-nova.bme.utexas.edu
 -----------------------------------------------------------
 Symbolic Z-matrix:
 Charge =  0 Multiplicity = 1

                         Standard orientation:
 ---------------------------------------------------------------------
 Center     Atomic      Atomic             Coordinates (Angstroms)
 Number     Number       Type             X           Y           Z
 ---------------------------------------------------------------------
      1          8           0        0.750867    0.122706    0.000000
      2          6           0       -0.666540   -0.019469    0.000000
      3          1           0       -1.031969   -0.543037    0.892105
      4          1           0       -1.031967   -0.543052   -0.892097
      5          1           0       -1.074559    0.991201   -0.000008
      6          1           0        1.130797   -0.769944    0.000000
 ---------------------------------------------------------------------

 SCF Done:  E(RHF) =  -115.083701459     A.U. after   12 cycles
 E2 =    -0.3923657649D+00 EUMP2 =    -0.11547606722426D+03

 The electronic state is 1-A.
 Alpha  occ. eigenvalues --  -20.56066 -11.27266  -1.35573  -0.92457  -0.69007
 Alpha  occ. eigenvalues --   -0.61907  -0.59222  -0.50554  -0.45153
 Alpha virt. eigenvalues --    0.03915   0.06349   0.07206   0.07956   0.12701
 Alpha virt. eigenvalues --    0.14668   0.15935   0.18226   0.27563   0.28453
 Alpha virt. eigenvalues --    0.28836   0.28950   0.31046   0.32607   0.34009

 Mulliken atomic charges:
              1
     1  O   -0.432690
     2  C   -0.005333
     3  H    0.060735
     4  H    0.060735
     5  H    0.082934
     6  H    0.233618
 Sum of Mulliken atomic charges =   0.00000

 Dipole moment (field-independent basis, Debye):
    X=             -0.9356    Y=             -1.5277    Z=              0.0000  Tot=              1.7914
 Quadrupole moment (field-independent basis, Debye-Ang):
   XX=            -13.2931   YY=            -12.3716   ZZ=            -14.1088
   XY=             -2.2864   XZ=              0.0000   YZ=              0.0000

 Normal termination of Gaussian 09 at Fri Dec 20 15:01:00 2019.
