 Gaussian 09, Revision A.02,
 Gaussian 09:  EM64L-G09RevA.02 11-Jun-2009

 ---------------------------------------------------------
 #P opt=(maxcycle=400) MP2/6-31G* Guess=INDO MaxDisk=100GB
 ---------------------------------------------------------

 -----------------------------------------------------------
 methanol Gaussian SP Calculation on bme-nova.bme.utexas.edu
 -----------------------------------------------------------
 Symbolic Z-matrix:
 Charge =  0 Multiplicity = 1

 SCF Done:  E(RHF) =  -115.033760513     A.U. after   12 cycles
 E2 =    -0.3114326594D+00 EUMP2 =    -0.11534519317249D+03
 SCF Done:  E(RHF) =  -115.033815282     A.U. after   12 cycles
 E2 =    -0.3122313771D+00 EUMP2 =    -0.11534604665885D+03
 SCF Done:  E(RHF) =  -115.034090555     A.U. after    9 cycles
 E2 =    -0.3120442049D+00 EUMP2 =    -0.11534613476021D+03
 SCF Done:  E(RHF) =  -115.034112913     A.U. after    8 cycles
 E2 =    -0.3120225380D+00 EUMP2 =    -0.11534613545122D+03
 Optimization completed.
    -- Stationary point found.

                         Standard orientation:
 ---------------------------------------------------------------------
 Center     Atomic      Atomic             Coordinates (Angstroms)
 Number     Number       Type             X           Y           Z
 ---------------------------------------------------------------------
      1          8           0        0.750867    0.122706    0.000000
      2          6           0       -0.666540   -0.019469    0.000000
      3          1           0       -1.031969   -0.543037    0.892105
      4          1           0       -1.031967   -0.543052   -0.892097
      5          1           0       -1.074559    0.991201   -0.000008
      6          1           0        1.130797   -0.769944    0.000000
 ---------------------------------------------------------------------

 The electronic state is 1-A.
 Alpha  occ. eigenvalues --  -20.55984 -11.27230  -1.34779  -0.92184  -0.68354
 Alpha  occ. eigenvalues --   -0.61548  -0.58620  -0.49963  -0.44530
 Alpha virt. eigenvalues --    0.22266   0.27646   0.31924   0.32692   0.37938
 Alpha virt. eigenvalues --    0.76218   0.77698   0.78695   1.04798   1.12217
 Alpha virt. eigenvalues --    1.14507   1.17244   1.20529   1.25515   1.26675

 Mulliken atomic charges:
              1
     1  O   -0.728113
     2  C   -0.168930
     3  H    0.143441
     4  H    0.143441
     5  H    0.176114
     6  H    0.434046
 Sum of Mulliken atomic charges =   0.00000

 Dipole moment (field-independent basis, Debye):
    X=             -1.0057    Y=             -1.6719    Z=              0.0000  Tot=              1.9510
 Quadrupole moment (field-independent basis, Debye-Ang):
   XX=            -12.7159   YY=            -11.9891   ZZ=            -13.6796
   XY=             -2.3411   XZ=              0.0000   YZ=              0.0000

 1\1\GINC-BME-NOVA\FOpt\RMP2-FC\6-31G(d)\C1H4O1\BDW2292\20-Dec-2019\0\\
 #P opt=(maxcycle=400) MP2/6-31G* Guess=INDO MaxDisk=100GB\\methanol Ga
 ussian SP Calculation on bme-nova.bme.utexas.edu\\0,1\O,0.7189397206,0
 .0084131044,0.0028666252\C,-0.7053471146,-0.0159974277,-0.005407641\H,
 -1.1123788285,-0.7679791182,0.681878401\H,-1.112364176,-0.1959464074,-
 1.0081380523\H,-1.029340526,0.9697228258,0.3282341303\H,1.0245909245,-
 0.8637129768,-0.2923334632\\Version=EM64L-G09RevA.02\State=1-A\HF=-115
 .0341129\MP2=-115.3461355\RMSD=2.814e-09\RMSF=5.297e-05\Dipole=-0.3973

 Normal termination of Gaussian 09 at Fri Dec 20 15:00:49 2019.
