                               Psi4 1.3.2 release

  ==> Input File <==

--------------------------------------------------------------------------
molecule {
0 1
O            0.693690146401     0.037164741073     0.012584016425
C           -0.729241010977     0.012776814693     0.004319836608
H           -1.136719304926    -0.738656445925     0.691357061048
H           -1.136707737576    -0.166885778708    -0.997879410183
H           -1.053310700057     0.998092894950     0.337826683955
H            1.000319507828    -0.834513424482    -0.282457361871
}
memory 700MB
set_num_threads(1)
psi4_io.set_default_path("/scratch/bdw2292")
set freeze_core True
E, wfn = energy('mp2/6-311G**',return_wfn=True)
gdma(wfn)
fchk(wfn, "methanol-dma.fchk")
clean()
--------------------------------------------------------------------------

    Molecular point group: c1

    Geometry (in Angstrom), charge = 0, multiplicity = 1:

       Center              X                  Y                   Z               Mass
    ------------   -----------------  -----------------  -----------------  -----------------
         O            0.693690146401     0.037164741073     0.012584016425    15.994914619570
         C           -0.729241010977     0.012776814693     0.004319836608    12.000000000000
         H           -1.136719304926    -0.738656445925     0.691357061048     1.007825032230
         H           -1.136707737576    -0.166885778708    -0.997879410183     1.007825032230
         H           -1.053310700057     0.998092894950     0.337826683955     1.007825032230
         H            1.000319507828    -0.834513424482    -0.282457361871     1.007825032230

  Charge       = 0
  Multiplicity = 1
  Basis Set: 6-311G**
    Blend: 6-311G**
  Basis Set: (6-311G** AUX)
    Blend: CC-PVTZ-JKFIT

    Orbital Energies [Eh]
    ---------------------

    Doubly Occupied:

       1A    -20.545905     2A    -11.270602     3A     -1.348270
       4A     -0.921373     5A     -0.683605     6A     -0.615551
       7A     -0.586510     8A     -0.499826     9A     -0.446662

  @DF-RHF Final Energy:  -115.07420326223021

   => Energetics <=

    Nuclear Repulsion Energy =             40.2043516074919296
    One-Electron Energy =                -236.7205008864328022
    Two-Electron Energy =                  81.4419460167106593
    Total Energy =                       -115.0742032622302133

  Dipole Moment: [D]
     X:    -1.1246      Y:    -1.4671      Z:    -0.4966     Total:     1.9141

  Basis Set: (6-311G** AUX)
    Blend: CC-PVTZ-RI
	 Reference Energy          =    -115.0742032622302133 [Eh]
	 Singles Energy            =      -0.0000000000000000 [Eh]
	 Same-Spin Energy          =      -0.0852784834981884 [Eh]
	 Opposite-Spin Energy      =      -0.2766674208788188 [Eh]
	 Correlation Energy        =      -0.3619459043770072 [Eh]
	 Total Energy              =    -115.4361491666072226 [Eh]

	 ================> DF-SCS-MP2 Energies <==================
	-----------------------------------------------------------
	 SCS Same-Spin Scale       =       0.3333333333333333 [-]
	 SCS Opposite-Spin Scale   =       1.2000000000000000 [-]
	 SCS Same-Spin Energy      =      -0.0284261611660628 [Eh]
	 SCS Opposite-Spin Energy  =      -0.3320009050545826 [Eh]
	 SCS Correlation Energy    =      -0.3604270662206454 [Eh]
	 SCS Total Energy          =    -115.4346303284508650 [Eh]
	-----------------------------------------------------------

*** Psi4 exiting successfully. Buy a developer a beer!
