                               Psi4 1.3.2 release

  ==> Input File <==

--------------------------------------------------------------------------
molecule {
0 1
O            0.693690146401     0.037164741073     0.012584016425
C           -0.729241010977     0.012776814693     0.004319836608
H           -1.136719304926    -0.738656445925     0.691357061048
H           -1.136707737576    -0.166885778708    -0.997879410183
H           -1.053310700057     0.998092894950     0.337826683955
H            1.000319507828    -0.834513424482    -0.282457361871
}
memory 700MB
set_num_threads(1)
psi4_io.set_default_path("/scratch/bdw2292")
set freeze_core True
E, wfn = energy('mp2/6-311++G(2d,2p)',return_wfn=True)
oeprop(wfn,"DIPOLE","GRID_ESP")
clean()
--------------------------------------------------------------------------

    Molecular point group: c1

    Geometry (in Angstrom), charge = 0, multiplicity = 1:

       Center              X                  Y                   Z               Mass
    ------------   -----------------  -----------------  -----------------  -----------------
         O            0.693690146401     0.037164741073     0.012584016425    15.994914619570
         C           -0.729241010977     0.012776814693     0.004319836608    12.000000000000
         H           -1.136719304926    -0.738656445925     0.691357061048     1.007825032230
         H           -1.136707737576    -0.166885778708    -0.997879410183     1.007825032230
         H           -1.053310700057     0.998092894950     0.337826683955     1.007825032230
         H            1.000319507828    -0.834513424482    -0.282457361871     1.007825032230

  Charge       = 0
  Multiplicity = 1
  Basis Set: 6-311++G(2D,2P)
    Blend: 6-311++G(2D,2P)
  Basis Set: (6-311++G(2D,2P) AUX)
    Blend: AUG-CC-PVTZ-JKFIT

    Orbital Energies [Eh]
    ---------------------

    Doubly Occupied:

       1A    -20.560636     2A    -11.272381     3A     -1.356201
       4A     -0.924689     5A     -0.690418     6A     -0.619296
       7A     -0.592607     8A     -0.505402     9A     -0.451441

  @DF-RHF Final Energy:  -115.08376073661942

   => Energetics <=

    Nuclear Repulsion Energy =             40.2043516074919296
    One-Electron Energy =                -236.6300859839233226
    Two-Electron Energy =                  81.3419736398119682
    Total Energy =                       -115.0837607366194248
  Basis Set: (6-311++G(2D,2P) AUX)
    Blend: AUG-CC-PVTZ-RI
	 Reference Energy          =    -115.0837607366194248 [Eh]
	 Singles Energy            =      -0.0000000000000000 [Eh]
	 Same-Spin Energy          =      -0.0930594421854421 [Eh]
	 Opposite-Spin Energy      =      -0.2991941418207733 [Eh]
	 Correlation Energy        =      -0.3922535840062155 [Eh]
	 Total Energy              =    -115.4760143206256373 [Eh]

	 ================> DF-SCS-MP2 Energies <==================
	-----------------------------------------------------------
	 SCS Same-Spin Scale       =       0.3333333333333333 [-]
	 SCS Opposite-Spin Scale   =       1.2000000000000000 [-]
	 SCS Same-Spin Energy      =      -0.0310198140618140 [Eh]
	 SCS Opposite-Spin Energy  =      -0.3590329701849280 [Eh]
	 SCS Correlation Energy    =      -0.3900527842467420 [Eh]
	 SCS Total Energy          =    -115.4738135208661731 [Eh]
	-----------------------------------------------------------

  Dipole Moment: [D]
     X:    -1.1205      Y:    -1.4365      Z:    -0.4862     Total:     1.8856

*** Psi4 exiting successfully. Buy a developer a beer!
