                               Psi4 1.3.2 release

  ==> Input File <==

--------------------------------------------------------------------------
molecule {
0 1
 O    0.707900    0.000000    0.000000
 C   -0.707900    0.000000    0.000000
 H   -1.073200   -0.769000    0.685200
 H   -1.073100   -0.194700   -1.011300
 H   -1.063200    0.978600    0.331200
 H    0.993600   -0.880400   -0.298000
}
memory 700MB
set_num_threads(1)
psi4_io.set_default_path("/scratch/bdw2292")
optimize('mp2/6-31G*')
clean()
--------------------------------------------------------------------------

    Molecular point group: c1
  Charge       = 0
  Multiplicity = 1
  Basis Set: 6-31G*
    Blend: 6-31G*
  Basis Set: (6-31G* AUX)
    Blend: CC-PVDZ-JKFIT
  @DF-RHF Final Energy:  -115.03369590862761
    Total Energy =                       -115.0336959086276067
  Basis Set: (6-31G* AUX)
    Blend: CC-PVDZ-RI
    Molecular point group: c1
  Basis Set: 6-31G*
    Blend: 6-31G*
  Basis Set: (6-31G* AUX)
    Blend: CC-PVDZ-JKFIT
  Basis Set: (6-31G* AUX)
    Blend: CC-PVDZ-JKFIT
	 Reference Energy          =    -115.0336959086276067 [Eh]
	 Singles Energy            =      -0.0000000000000000 [Eh]
	 Same-Spin Energy          =      -0.0777726037312973 [Eh]
	 Opposite-Spin Energy      =      -0.2406954049108093 [Eh]
	 Correlation Energy        =      -0.3184680086421066 [Eh]
	 Total Energy              =    -115.3521639172697064 [Eh]
	 SCS Total Energy          =    -115.3484545957643377 [Eh]
  @DF-RHF Final Energy:  -115.03371355182357
    Total Energy =                       -115.0337135518235669
  @DF-RHF Final Energy:  -115.03408293857666
    Total Energy =                       -115.0340829385766597
  Charge       = 0
  Multiplicity = 1
  Basis Set: 6-31G*
    Blend: 6-31G*
  Basis Set: (6-31G* AUX)
    Blend: CC-PVDZ-JKFIT

    Orbital Energies [Eh]
    ---------------------

    Doubly Occupied:

       1A    -20.559806     2A    -11.272049     3A     -1.348281
       4A     -0.921955     5A     -0.683887     6A     -0.615687
       7A     -0.586581     8A     -0.499505     9A     -0.445214

  @DF-RHF Final Energy:  -115.03411686597750

   => Energetics <=

    Nuclear Repulsion Energy =             40.2043516074942886
    One-Electron Energy =                -236.6110034733418956
    Two-Electron Energy =                  81.3725349998701120
    Total Energy =                       -115.0341168659774951

  Dipole Moment: [D]
     X:    -1.1337      Y:    -1.5003      Z:    -0.5078     Total:     1.9479

  Basis Set: (6-31G* AUX)
    Blend: CC-PVDZ-RI
    Molecular point group: c1
  Basis Set: 6-31G*
    Blend: 6-31G*
  Basis Set: (6-31G* AUX)
    Blend: CC-PVDZ-JKFIT
  Basis Set: (6-31G* AUX)
    Blend: CC-PVDZ-JKFIT
	 Reference Energy          =    -115.0341168659774951 [Eh]
	 Singles Energy            =      -0.0000000000000000 [Eh]
	 Same-Spin Energy          =      -0.0778891630899275 [Eh]
	 Opposite-Spin Energy      =      -0.2410838689102439 [Eh]
	 Correlation Energy        =      -0.3189730320001715 [Eh]
	 Total Energy              =    -115.3530898979776680 [Eh]

	 ================> DF-SCS-MP2 Energies <==================
	-----------------------------------------------------------
	 SCS Same-Spin Scale       =       0.3333333333333333 [-]
	 SCS Opposite-Spin Scale   =       1.2000000000000000 [-]
	 SCS Same-Spin Energy      =      -0.0259630543633092 [Eh]
	 SCS Opposite-Spin Energy  =      -0.2893006426922927 [Eh]
	 SCS Correlation Energy    =      -0.3152636970556019 [Eh]
	 SCS Total Energy          =    -115.3493805630330939 [Eh]
	-----------------------------------------------------------

  -Total Gradient:
     Atom            X                  Y                   Z
    ------   -----------------  -----------------  -----------------
       1        0.000084072936     0.000110663856     0.000037417725
       2       -0.000146106140    -0.000130067619    -0.000043914712
       3        0.000032368281     0.000014247468    -0.000000343049
       4        0.000032376324     0.000011043983     0.000008777623
       5        0.000086305615     0.000002247195     0.000000808754
       6       -0.000089017016    -0.000008134883    -0.000002746341

  **** Optimization is complete! (in 4 steps) ****
    Final optimized geometry and variables:
    Molecular point group: c1

    Geometry (in Angstrom), charge = 0, multiplicity = 1:

    O            0.693690146401     0.037164741073     0.012584016425
    C           -0.729241010977     0.012776814693     0.004319836608
    H           -1.136719304926    -0.738656445925     0.691357061048
    H           -1.136707737576    -0.166885778708    -0.997879410183
    H           -1.053310700057     0.998092894950     0.337826683955
    H            1.000319507828    -0.834513424482    -0.282457361871

*** Psi4 exiting successfully. Buy a developer a beer!
