                               Psi4 1.3.2 release

  ==> Input File <==

--------------------------------------------------------------------------
molecule {
0 1
C            0.000006028363     0.667512770964     0.000000000000
C           -0.000006144750    -0.667512711517     0.000000000000
H           -0.922878826341     1.237507146076     0.000000000000
H            0.922902136267     1.237492286491     0.000000000000
H            0.922878353820    -1.237508378903     0.000000000000
H           -0.922900277947    -1.237491761489     0.000000000000
}
memory 5GB
set_num_threads(4)
psi4_io.set_default_path("/scratch/bdw2292")
set freeze_core True
E, wfn = energy('mp2/6-311++G(2d,2p)',return_wfn=True)
oeprop(wfn,"DIPOLE","GRID_ESP")
clean()
--------------------------------------------------------------------------

    Molecular point group: cs

    Geometry (in Angstrom), charge = 0, multiplicity = 1:

       Center              X                  Y                   Z               Mass
    ------------   -----------------  -----------------  -----------------  -----------------
         C            0.000006028363     0.667512770964     0.000000000000    12.000000000000
         C           -0.000006144750    -0.667512711517     0.000000000000    12.000000000000
         H           -0.922878826341     1.237507146076     0.000000000000     1.007825032230
         H            0.922902136267     1.237492286491     0.000000000000     1.007825032230
         H            0.922878353820    -1.237508378903     0.000000000000     1.007825032230
         H           -0.922900277947    -1.237491761489     0.000000000000     1.007825032230

  Charge       = 0
  Multiplicity = 1
  Basis Set: 6-311++G(2D,2P)
    Blend: 6-311++G(2D,2P)
  Basis Set: (6-311++G(2D,2P) AUX)
    Blend: AUG-CC-PVTZ-JKFIT

    Orbital Energies [Eh]
    ---------------------

    Doubly Occupied:

       1Ap   -11.232668     2Ap   -11.230971     3Ap    -1.033855
       4Ap    -0.793637     5Ap    -0.642644     6Ap    -0.589886
       7Ap    -0.507524     1App   -0.376180

  @DF-RHF Final Energy:   -78.06022548729818

   => Energetics <=

    Nuclear Repulsion Energy =             33.3215996597608637
    One-Electron Energy =                -169.9489197045245135
    Two-Electron Energy =                  58.5670945574654667
    Total Energy =                        -78.0602254872981831
  Basis Set: (6-311++G(2D,2P) AUX)
    Blend: AUG-CC-PVTZ-RI
	 Reference Energy          =     -78.0602254872981831 [Eh]
	 Singles Energy            =      -0.0000000000000000 [Eh]
	 Same-Spin Energy          =      -0.0671335080766815 [Eh]
	 Opposite-Spin Energy      =      -0.2403554433155903 [Eh]
	 Correlation Energy        =      -0.3074889513922718 [Eh]
	 Total Energy              =     -78.3677144386904558 [Eh]

	 ================> DF-SCS-MP2 Energies <==================
	-----------------------------------------------------------
	 SCS Same-Spin Scale       =       0.3333333333333333 [-]
	 SCS Opposite-Spin Scale   =       1.2000000000000000 [-]
	 SCS Same-Spin Energy      =      -0.0223778360255605 [Eh]
	 SCS Opposite-Spin Energy  =      -0.2884265319787084 [Eh]
	 SCS Correlation Energy    =      -0.3108043680042689 [Eh]
	 SCS Total Energy          =     -78.3710298553024529 [Eh]
	-----------------------------------------------------------

  Dipole Moment: [D]
     X:    -0.0000      Y:    -0.0000      Z:     0.0000     Total:     0.0000

*** Psi4 exiting successfully. Buy a developer a beer!
