                               Psi4 1.3.2 release

  ==> Input File <==

--------------------------------------------------------------------------
molecule {
0 1
 C   -0.667200    0.000000    0.000000
 C    0.667200    0.000000    0.000000
 H   -1.221300   -0.929000    0.070800
 H   -1.221200    0.929000   -0.070800
 H    1.221300    0.929000   -0.070800
 H    1.221300   -0.929000    0.070800
}
memory 5GB
set_num_threads(4)
psi4_io.set_default_path("/scratch/bdw2292")
optimize('mp2/6-31G*')
clean()
--------------------------------------------------------------------------

    Molecular point group: cs
  Charge       = 0
  Multiplicity = 1
  Basis Set: 6-31G*
    Blend: 6-31G*
  Basis Set: (6-31G* AUX)
    Blend: CC-PVDZ-JKFIT
  @DF-RHF Final Energy:   -78.03085210469038
    Total Energy =                        -78.0308521046903820
  Basis Set: (6-31G* AUX)
    Blend: CC-PVDZ-RI
    Molecular point group: cs
  Basis Set: 6-31G*
    Blend: 6-31G*
  Basis Set: (6-31G* AUX)
    Blend: CC-PVDZ-JKFIT
  Basis Set: (6-31G* AUX)
    Blend: CC-PVDZ-JKFIT
	 Reference Energy          =     -78.0308521046903820 [Eh]
	 Singles Energy            =      -0.0000000000000000 [Eh]
	 Same-Spin Energy          =      -0.0591939924772471 [Eh]
	 Opposite-Spin Energy      =      -0.2038098239950555 [Eh]
	 Correlation Energy        =      -0.2630038164723026 [Eh]
	 Total Energy              =     -78.2938559211626881 [Eh]
	 SCS Total Energy          =     -78.2951552243101929 [Eh]
  @DF-RHF Final Energy:   -78.03090620153638
    Total Energy =                        -78.0309062015363821
  Charge       = 0
  Multiplicity = 1
  Basis Set: 6-31G*
    Blend: 6-31G*
  Basis Set: (6-31G* AUX)
    Blend: CC-PVDZ-JKFIT

    Orbital Energies [Eh]
    ---------------------

    Doubly Occupied:

       1Ap   -11.229563     2Ap   -11.227921     3Ap    -1.026597
       4Ap    -0.788038     5Ap    -0.636230     6Ap    -0.582049
       7Ap    -0.502495     1App   -0.370340

  @DF-RHF Final Energy:   -78.03100352570748

   => Energetics <=

    Nuclear Repulsion Energy =             33.3215996597570907
    One-Electron Energy =                -169.9787433719446881
    Two-Electron Energy =                  58.6261401864801286
    Total Energy =                        -78.0310035257074759

  Dipole Moment: [D]
     X:    -0.0000      Y:    -0.0000      Z:     0.0000     Total:     0.0000

  Basis Set: (6-31G* AUX)
    Blend: CC-PVDZ-RI
    Molecular point group: cs
  Basis Set: 6-31G*
    Blend: 6-31G*
  Basis Set: (6-31G* AUX)
    Blend: CC-PVDZ-JKFIT
  Basis Set: (6-31G* AUX)
    Blend: CC-PVDZ-JKFIT
	 Reference Energy          =     -78.0310035257074759 [Eh]
	 Singles Energy            =      -0.0000000000000000 [Eh]
	 Same-Spin Energy          =      -0.0591829776357835 [Eh]
	 Opposite-Spin Energy      =      -0.2038743713966713 [Eh]
	 Correlation Energy        =      -0.2630573490324548 [Eh]
	 Total Energy              =     -78.2940608747399267 [Eh]

	 ================> DF-SCS-MP2 Energies <==================
	-----------------------------------------------------------
	 SCS Same-Spin Scale       =       0.3333333333333333 [-]
	 SCS Opposite-Spin Scale   =       1.2000000000000000 [-]
	 SCS Same-Spin Energy      =      -0.0197276592119278 [Eh]
	 SCS Opposite-Spin Energy  =      -0.2446492456760055 [Eh]
	 SCS Correlation Energy    =      -0.2643769048879334 [Eh]
	 SCS Total Energy          =     -78.2953804305954151 [Eh]
	-----------------------------------------------------------

  -Total Gradient:
     Atom            X                  Y                   Z
    ------   -----------------  -----------------  -----------------
       1       -0.000000909468     0.000117739949     0.000000000000
       2       -0.000000459842    -0.000118068439     0.000000000000
       3        0.000024046377    -0.000014165591     0.000000000000
       4       -0.000023014753    -0.000013411862     0.000000000000
       5       -0.000023935718     0.000013878719     0.000000000000
       6        0.000024273406     0.000014027224     0.000000000000

  **** Optimization is complete! (in 3 steps) ****
    Final optimized geometry and variables:
    Molecular point group: cs

    Geometry (in Angstrom), charge = 0, multiplicity = 1:

    C            0.000006028363     0.667512770964     0.000000000000
    C           -0.000006144750    -0.667512711517     0.000000000000
    H           -0.922878826341     1.237507146076     0.000000000000
    H            0.922902136267     1.237492286491     0.000000000000
    H            0.922878353820    -1.237508378903     0.000000000000
    H           -0.922900277947    -1.237491761489     0.000000000000

*** Psi4 exiting successfully. Buy a developer a beer!
