                               Psi4 1.3.2 release

  ==> Input File <==

--------------------------------------------------------------------------
molecule {
0 1
N           -0.022969419889    -0.064322850541     0.009087840336
H           -0.336675715744     0.566884076293     0.741901772842
H           -0.336638113543     0.339145637016    -0.869933149905
H            0.992458994620    -0.012305497800     0.001761740276
}
memory 5GB
set_num_threads(4)
psi4_io.set_default_path("/scratch/bdw2292")
set freeze_core True
E, wfn = energy('mp2/6-311++G(2d,2p)',return_wfn=True)
oeprop(wfn,"DIPOLE","GRID_ESP")
clean()
--------------------------------------------------------------------------

    Molecular point group: c1

    Geometry (in Angstrom), charge = 0, multiplicity = 1:

       Center              X                  Y                   Z               Mass
    ------------   -----------------  -----------------  -----------------  -----------------
         N           -0.022969419889    -0.064322850541     0.009087840336    14.003074004430
         H           -0.336675715744     0.566884076293     0.741901772842     1.007825032230
         H           -0.336638113543     0.339145637016    -0.869933149905     1.007825032230
         H            0.992458994620    -0.012305497800     0.001761740276     1.007825032230

  Charge       = 0
  Multiplicity = 1
  Basis Set: 6-311++G(2D,2P)
    Blend: 6-311++G(2D,2P)
  Basis Set: (6-311++G(2D,2P) AUX)
    Blend: AUG-CC-PVTZ-JKFIT

    Orbital Energies [Eh]
    ---------------------

    Doubly Occupied:

       1A    -15.542232     2A     -1.141114     3A     -0.627076
       4A     -0.627075     5A     -0.429997

  @DF-RHF Final Energy:   -56.21731119863054

   => Energetics <=

    Nuclear Repulsion Energy =             11.9045067593168454
    One-Electron Energy =                 -99.5086464713753855
    Two-Electron Energy =                  31.3868285134280001
    Total Energy =                        -56.2173111986305400
  Basis Set: (6-311++G(2D,2P) AUX)
    Blend: AUG-CC-PVTZ-RI
	 Reference Energy          =     -56.2173111986305400 [Eh]
	 Singles Energy            =      -0.0000000000000000 [Eh]
	 Same-Spin Energy          =      -0.0495096677932730 [Eh]
	 Opposite-Spin Energy      =      -0.1665423047882671 [Eh]
	 Correlation Energy        =      -0.2160519725815402 [Eh]
	 Total Energy              =     -56.4333631712120791 [Eh]

	 ================> DF-SCS-MP2 Energies <==================
	-----------------------------------------------------------
	 SCS Same-Spin Scale       =       0.3333333333333333 [-]
	 SCS Opposite-Spin Scale   =       1.2000000000000000 [-]
	 SCS Same-Spin Energy      =      -0.0165032225977577 [Eh]
	 SCS Opposite-Spin Energy  =      -0.1998507657459206 [Eh]
	 SCS Correlation Energy    =      -0.2163539883436782 [Eh]
	 SCS Total Energy          =     -56.4336651869742170 [Eh]
	-----------------------------------------------------------

  Dipole Moment: [D]
     X:     0.5659      Y:     1.5846      Z:    -0.2239     Total:     1.6975

*** Psi4 exiting successfully. Buy a developer a beer!
