                               Psi4 1.3.2 release

  ==> Input File <==

--------------------------------------------------------------------------
molecule {
0 1
 N    1.075300   -0.018600    0.047100
 H    0.763700    0.618300    0.779000
 H    0.763700    0.390600   -0.832600
 H    2.092600    0.039200    0.039000
}
memory 5GB
set_num_threads(4)
psi4_io.set_default_path("/scratch/bdw2292")
optimize('mp2/6-31G*')
clean()
--------------------------------------------------------------------------

    Molecular point group: c1
  Charge       = 0
  Multiplicity = 1
  Basis Set: 6-31G*
    Blend: 6-31G*
  Basis Set: (6-31G* AUX)
    Blend: CC-PVDZ-JKFIT
  @DF-RHF Final Energy:   -56.18364552499643
    Total Energy =                        -56.1836455249964288
  Basis Set: (6-31G* AUX)
    Blend: CC-PVDZ-RI
    Molecular point group: c1
  Basis Set: 6-31G*
    Blend: 6-31G*
  Basis Set: (6-31G* AUX)
    Blend: CC-PVDZ-JKFIT
  Basis Set: (6-31G* AUX)
    Blend: CC-PVDZ-JKFIT
	 Reference Energy          =     -56.1836455249964288 [Eh]
	 Singles Energy            =      -0.0000000000000000 [Eh]
	 Same-Spin Energy          =      -0.0403849095494145 [Eh]
	 Opposite-Spin Energy      =      -0.1332695234349802 [Eh]
	 Correlation Energy        =      -0.1736544329843947 [Eh]
	 Total Energy              =     -56.3572999579808211 [Eh]
	 SCS Total Energy          =     -56.3570305896348742 [Eh]
  @DF-RHF Final Energy:   -56.18379387551639
    Total Energy =                        -56.1837938755163862
  Charge       = 0
  Multiplicity = 1
  Basis Set: 6-31G*
    Blend: 6-31G*
  Basis Set: (6-31G* AUX)
    Blend: CC-PVDZ-JKFIT

    Orbital Energies [Eh]
    ---------------------

    Doubly Occupied:

       1A    -15.540284     2A     -1.134632     3A     -0.620755
       4A     -0.620753     5A     -0.422022

  @DF-RHF Final Energy:   -56.18382787226912

   => Energetics <=

    Nuclear Repulsion Energy =             11.9045067593167033
    One-Electron Energy =                 -99.4997771589947035
    Two-Electron Energy =                  31.4114425274088802
    Total Energy =                        -56.1838278722691200

  Dipole Moment: [D]
     X:     0.6564      Y:     1.8381      Z:    -0.2597     Total:     1.9690

  Basis Set: (6-31G* AUX)
    Blend: CC-PVDZ-RI
    Molecular point group: c1
  Basis Set: 6-31G*
    Blend: 6-31G*
  Basis Set: (6-31G* AUX)
    Blend: CC-PVDZ-JKFIT
  Basis Set: (6-31G* AUX)
    Blend: CC-PVDZ-JKFIT
	 Reference Energy          =     -56.1838278722691200 [Eh]
	 Singles Energy            =      -0.0000000000000000 [Eh]
	 Same-Spin Energy          =      -0.0403728552160234 [Eh]
	 Opposite-Spin Energy      =      -0.1331144279270744 [Eh]
	 Correlation Energy        =      -0.1734872831430978 [Eh]
	 Total Energy              =     -56.3573151554122163 [Eh]

	 ================> DF-SCS-MP2 Energies <==================
	-----------------------------------------------------------
	 SCS Same-Spin Scale       =       0.3333333333333333 [-]
	 SCS Opposite-Spin Scale   =       1.2000000000000000 [-]
	 SCS Same-Spin Energy      =      -0.0134576184053411 [Eh]
	 SCS Opposite-Spin Energy  =      -0.1597373135124893 [Eh]
	 SCS Correlation Energy    =      -0.1731949319178304 [Eh]
	 SCS Total Energy          =     -56.3570228041869470 [Eh]
	-----------------------------------------------------------

  -Total Gradient:
     Atom            X                  Y                   Z
    ------   -----------------  -----------------  -----------------
       1        0.000000785498     0.000007359456    -0.000000070865
       2       -0.000009714615     0.000002788179     0.000016729425
       3       -0.000010041327    -0.000001491518    -0.000017855922
       4        0.000018970444    -0.000008656116     0.000001197362

  **** Optimization is complete! (in 3 steps) ****
    Final optimized geometry and variables:
    Molecular point group: c1

    Geometry (in Angstrom), charge = 0, multiplicity = 1:

    N           -0.022969419889    -0.064322850541     0.009087840336
    H           -0.336675715744     0.566884076293     0.741901772842
    H           -0.336638113543     0.339145637016    -0.869933149905
    H            0.992458994620    -0.012305497800     0.001761740276

*** Psi4 exiting successfully. Buy a developer a beer!
