                               Psi4 1.3.2 release

  ==> Input File <==

--------------------------------------------------------------------------
molecule {
0 1
N           -0.022969419889    -0.064322850541     0.009087840336
H           -0.336675715744     0.566884076293     0.741901772842
H           -0.336638113543     0.339145637016    -0.869933149905
H            0.992458994620    -0.012305497800     0.001761740276
}
memory 5GB
set_num_threads(4)
psi4_io.set_default_path("/scratch/bdw2292")
set freeze_core True
E, wfn = energy('mp2/6-311G**',return_wfn=True)
gdma(wfn)
fchk(wfn, "ammonia-dma.fchk")
clean()
--------------------------------------------------------------------------

    Molecular point group: c1

    Geometry (in Angstrom), charge = 0, multiplicity = 1:

       Center              X                  Y                   Z               Mass
    ------------   -----------------  -----------------  -----------------  -----------------
         N           -0.022969419889    -0.064322850541     0.009087840336    14.003074004430
         H           -0.336675715744     0.566884076293     0.741901772842     1.007825032230
         H           -0.336638113543     0.339145637016    -0.869933149905     1.007825032230
         H            0.992458994620    -0.012305497800     0.001761740276     1.007825032230

  Charge       = 0
  Multiplicity = 1
  Basis Set: 6-311G**
    Blend: 6-311G**
  Basis Set: (6-311G** AUX)
    Blend: CC-PVTZ-JKFIT

    Orbital Energies [Eh]
    ---------------------

    Doubly Occupied:

       1A    -15.530466     2A     -1.133946     3A     -0.619712
       4A     -0.619711     5A     -0.423867

  @DF-RHF Final Energy:   -56.20976617721711

   => Energetics <=

    Nuclear Repulsion Energy =             11.9045067593168454
    One-Electron Energy =                 -99.5731403776822503
    Two-Electron Energy =                  31.4588674411482998
    Total Energy =                        -56.2097661772171051

  Dipole Moment: [D]
     X:     0.5954      Y:     1.6672      Z:    -0.2356     Total:     1.7859

  Basis Set: (6-311G** AUX)
    Blend: CC-PVTZ-RI
	 Reference Energy          =     -56.2097661772171051 [Eh]
	 Singles Energy            =      -0.0000000000000000 [Eh]
	 Same-Spin Energy          =      -0.0453212989633361 [Eh]
	 Opposite-Spin Energy      =      -0.1536418362031277 [Eh]
	 Correlation Energy        =      -0.1989631351664639 [Eh]
	 Total Energy              =     -56.4087293123835707 [Eh]

	 ================> DF-SCS-MP2 Energies <==================
	-----------------------------------------------------------
	 SCS Same-Spin Scale       =       0.3333333333333333 [-]
	 SCS Opposite-Spin Scale   =       1.2000000000000000 [-]
	 SCS Same-Spin Energy      =      -0.0151070996544454 [Eh]
	 SCS Opposite-Spin Energy  =      -0.1843702034437533 [Eh]
	 SCS Correlation Energy    =      -0.1994773030981987 [Eh]
	 SCS Total Energy          =     -56.4092434803153040 [Eh]
	-----------------------------------------------------------

*** Psi4 exiting successfully. Buy a developer a beer!
