                               Psi4 1.3.2 release

  ==> Input File <==

--------------------------------------------------------------------------
molecule {
0 1
 N   -2.404600    0.000000    0.000500
 C   -0.994100   -0.000200   -0.000300
 C   -0.296900    1.207900   -0.000300
 C   -0.296500   -1.208000   -0.000300
 C    1.098000    1.208000    0.000100
 C    1.098400   -1.207800    0.000100
 C    1.795700    0.000200    0.000300
 H   -0.828900    2.155800   -0.000300
 H   -0.828300   -2.156100   -0.000200
 H    1.641100    2.148600    0.000200
 H    1.641700   -2.148200    0.000200
 H    2.881800    0.000400    0.000600
 H   -2.910900   -0.875500   -0.000500
 H   -2.910700    0.875600   -0.000600
}
memory 700MB
set_num_threads(1)
psi4_io.set_default_path("/scratch/bdw2292")
optimize('mp2/6-31G*')
clean()
--------------------------------------------------------------------------

    Molecular point group: c1
  Charge       = 0
  Multiplicity = 1
  Basis Set: 6-31G*
    Blend: 6-31G*
  Basis Set: (6-31G* AUX)
    Blend: CC-PVDZ-JKFIT
  @DF-RHF Final Energy:  -285.72470545407066
    Total Energy =                       -285.7247054540706586
  Basis Set: (6-31G* AUX)
    Blend: CC-PVDZ-RI
    Molecular point group: c1
  Basis Set: 6-31G*
    Blend: 6-31G*
  Basis Set: (6-31G* AUX)
    Blend: CC-PVDZ-JKFIT
  Basis Set: (6-31G* AUX)
    Blend: CC-PVDZ-JKFIT
	 Reference Energy          =    -285.7247054540706586 [Eh]
	 Singles Energy            =      -0.0000000000000000 [Eh]
	 Same-Spin Energy          =      -0.2522937769589203 [Eh]
	 Opposite-Spin Energy      =      -0.7011018965191893 [Eh]
	 Correlation Energy        =      -0.9533956734781096 [Eh]
	 Total Energy              =    -286.6781011275487572 [Eh]
	 SCS Total Energy          =    -286.6501256555466739 [Eh]
  @DF-RHF Final Energy:  -285.72630566233596
    Total Energy =                       -285.7263056623359603
  @DF-RHF Final Energy:  -285.72638404777251
    Total Energy =                       -285.7263840477725125
  @DF-RHF Final Energy:  -285.72637622452817
    Total Energy =                       -285.7263762245281669
  @DF-RHF Final Energy:  -285.72000228723113
    Total Energy =                       -285.7200022872311251
  @DF-RHF Final Energy:  -285.45102155064984
    Total Energy =                       -285.4510215506498412
  @DF-RHF Final Energy:  -285.71647983531238
    Total Energy =                       -285.7164798353123842
  @DF-RHF Final Energy:  -285.72763450865398
    Total Energy =                       -285.7276345086539777
  @DF-RHF Final Energy:  -285.72777703290882
    Total Energy =                       -285.7277770329088185
  @DF-RHF Final Energy:  -285.72831477195621
    Total Energy =                       -285.7283147719562066
  @DF-RHF Final Energy:  -285.72869893312452
    Total Energy =                       -285.7286989331245195
  @DF-RHF Final Energy:  -285.72879176860181
    Total Energy =                       -285.7287917686018091
  Charge       = 0
  Multiplicity = 1
  Basis Set: 6-31G*
    Blend: 6-31G*
  Basis Set: (6-31G* AUX)
    Blend: CC-PVDZ-JKFIT

    Orbital Energies [Eh]
    ---------------------

    Doubly Occupied:

       1A    -15.565660     2A    -11.274115     3A    -11.233461
       4A    -11.233424     5A    -11.222406     6A    -11.222391
       7A    -11.218525     8A     -1.216925     9A     -1.120042
      10A     -1.006003    11A     -0.979762    12A     -0.825538
      13A     -0.805431    14A     -0.697250    15A     -0.675711
      16A     -0.649098    17A     -0.592091    18A     -0.585599
      19A     -0.575400    20A     -0.527338    21A     -0.500332
      22A     -0.483722    23A     -0.442448    24A     -0.330026
      25A     -0.289959

  @DF-RHF Final Energy:  -285.72877591966721

   => Energetics <=

    Nuclear Repulsion Energy =            271.2300767759541600
    One-Electron Energy =                -923.3723912870199229
    Two-Electron Energy =                 366.4135385913984919
    Total Energy =                       -285.7287759196672141

  Dipole Moment: [D]
     X:    -0.8021      Y:     0.0007      Z:    -1.3509     Total:     1.5711

  Basis Set: (6-31G* AUX)
    Blend: CC-PVDZ-RI
    Molecular point group: c1
  Basis Set: 6-31G*
    Blend: 6-31G*
  Basis Set: (6-31G* AUX)
    Blend: CC-PVDZ-JKFIT
  Basis Set: (6-31G* AUX)
    Blend: CC-PVDZ-JKFIT
	 Reference Energy          =    -285.7287759196672141 [Eh]
	 Singles Energy            =      -0.0000000000000000 [Eh]
	 Same-Spin Energy          =      -0.2523622094672830 [Eh]
	 Opposite-Spin Energy      =      -0.7013894868001650 [Eh]
	 Correlation Energy        =      -0.9537516962674480 [Eh]
	 Total Energy              =    -286.6825276159346458 [Eh]

	 ================> DF-SCS-MP2 Energies <==================
	-----------------------------------------------------------
	 SCS Same-Spin Scale       =       0.3333333333333333 [-]
	 SCS Opposite-Spin Scale   =       1.2000000000000000 [-]
	 SCS Same-Spin Energy      =      -0.0841207364890943 [Eh]
	 SCS Opposite-Spin Energy  =      -0.8416673841601979 [Eh]
	 SCS Correlation Energy    =      -0.9257881206492923 [Eh]
	 SCS Total Energy          =    -286.6545640403165294 [Eh]
	-----------------------------------------------------------

  -Total Gradient:
     Atom            X                  Y                   Z
    ------   -----------------  -----------------  -----------------
       1        0.000206556117     0.000000939264     0.000097672100
       2       -0.000089044730     0.000002184010     0.000022206252
       3       -0.000061571639     0.000080508703    -0.000028385295
       4       -0.000060273568    -0.000082109735    -0.000028291828
       5        0.000011691834    -0.000032346922     0.000033168101
       6        0.000013345294     0.000033958514     0.000032998393
       7       -0.000040551119    -0.000002014793    -0.000034569962
       8        0.000017925506    -0.000027907450     0.000006125731
       9        0.000018829111     0.000028923635     0.000006269177
      10        0.000020756391     0.000011627587    -0.000011243101
      11        0.000021809365    -0.000012367831    -0.000011274268
      12       -0.000003825688    -0.000000526577     0.000013222134
      13       -0.000028307537    -0.000194322460    -0.000049464046
      14       -0.000027339333     0.000193454055    -0.000048433388

  **** Optimization is complete! (in 13 steps) ****
    Final optimized geometry and variables:
    Molecular point group: c1

    Geometry (in Angstrom), charge = 0, multiplicity = 1:

    N           -2.342609240876    -0.000176467513     0.116758348253
    C           -0.941853110765    -0.000051204349     0.010371871165
    C           -0.229073707438     1.205805369689     0.006176318036
    C           -0.228948395201    -1.205832910139     0.004992054268
    C            1.163021216147     1.202560301327    -0.028809080190
    C            1.163146020339    -1.202416312749    -0.029994820759
    C            1.869456080665     0.000113838775    -0.043521374654
    H           -0.772134754992     2.149032425409     0.022626572624
    H           -0.771913645022    -2.149128451749     0.020522365183
    H            1.697636192274     2.149339255619    -0.038156963096
    H            1.697859964148    -2.149131532425    -0.040274229162
    H            2.955347611972     0.000180000079    -0.071183597650
    H           -2.773090620968    -0.830644437326    -0.277405525618
    H           -2.773165127627     0.830672336532    -0.276516471690

*** Psi4 exiting successfully. Buy a developer a beer!
