                               Psi4 1.3.2 release

  ==> Input File <==

--------------------------------------------------------------------------
molecule {
0 1
N           -2.342609240876    -0.000176467513     0.116758348253
C           -0.941853110765    -0.000051204349     0.010371871165
C           -0.229073707438     1.205805369689     0.006176318036
C           -0.228948395201    -1.205832910139     0.004992054268
C            1.163021216147     1.202560301327    -0.028809080190
C            1.163146020339    -1.202416312749    -0.029994820759
C            1.869456080665     0.000113838775    -0.043521374654
H           -0.772134754992     2.149032425409     0.022626572624
H           -0.771913645022    -2.149128451749     0.020522365183
H            1.697636192274     2.149339255619    -0.038156963096
H            1.697859964148    -2.149131532425    -0.040274229162
H            2.955347611972     0.000180000079    -0.071183597650
H           -2.773090620968    -0.830644437326    -0.277405525618
H           -2.773165127627     0.830672336532    -0.276516471690
}
memory 700MB
set_num_threads(1)
psi4_io.set_default_path("/scratch/bdw2292")
set freeze_core True
E, wfn = energy('mp2/6-311G**',return_wfn=True)
gdma(wfn)
fchk(wfn, "aniline-dma.fchk")
clean()
--------------------------------------------------------------------------

    Molecular point group: c1

    Geometry (in Angstrom), charge = 0, multiplicity = 1:

       Center              X                  Y                   Z               Mass
    ------------   -----------------  -----------------  -----------------  -----------------
         N           -2.342609240876    -0.000176467513     0.116758348253    14.003074004430
         C           -0.941853110765    -0.000051204349     0.010371871165    12.000000000000
         C           -0.229073707438     1.205805369689     0.006176318036    12.000000000000
         C           -0.228948395201    -1.205832910139     0.004992054268    12.000000000000
         C            1.163021216147     1.202560301327    -0.028809080190    12.000000000000
         C            1.163146020339    -1.202416312749    -0.029994820759    12.000000000000
         C            1.869456080665     0.000113838775    -0.043521374654    12.000000000000
         H           -0.772134754992     2.149032425409     0.022626572624     1.007825032230
         H           -0.771913645022    -2.149128451749     0.020522365183     1.007825032230
         H            1.697636192274     2.149339255619    -0.038156963096     1.007825032230
         H            1.697859964148    -2.149131532425    -0.040274229162     1.007825032230
         H            2.955347611972     0.000180000079    -0.071183597650     1.007825032230
         H           -2.773090620968    -0.830644437326    -0.277405525618     1.007825032230
         H           -2.773165127627     0.830672336532    -0.276516471690     1.007825032230

  Charge       = 0
  Multiplicity = 1
  Basis Set: 6-311G**
    Blend: 6-311G**
  Basis Set: (6-311G** AUX)
    Blend: CC-PVTZ-JKFIT

    Orbital Energies [Eh]
    ---------------------

    Doubly Occupied:

       1A    -15.558919     2A    -11.275989     3A    -11.234337
       4A    -11.234302     5A    -11.222832     6A    -11.222814
       7A    -11.218765     8A     -1.219663     9A     -1.124184
      10A     -1.010025    11A     -0.983520    12A     -0.829304
      13A     -0.809113    14A     -0.701128    15A     -0.678387
      16A     -0.651736    17A     -0.595747    18A     -0.589603
      19A     -0.579071    20A     -0.531300    21A     -0.504015
      22A     -0.487182    23A     -0.446828    24A     -0.334563
      25A     -0.294472

  @DF-RHF Final Energy:  -285.79856838013950

   => Energetics <=

    Nuclear Repulsion Energy =            271.2300767759497262
    One-Electron Energy =                -923.3816945391915851
    Two-Electron Energy =                 366.3530493831023023
    Total Energy =                       -285.7985683801394998

  Dipole Moment: [D]
     X:    -0.9085      Y:     0.0006      Z:    -1.2028     Total:     1.5073

  Basis Set: (6-311G** AUX)
    Blend: CC-PVTZ-RI
	 Reference Energy          =    -285.7985683801394998 [Eh]
	 Singles Energy            =      -0.0000000000000000 [Eh]
	 Same-Spin Energy          =      -0.2637322715414264 [Eh]
	 Opposite-Spin Energy      =      -0.7420981472575831 [Eh]
	 Correlation Energy        =      -1.0058304187990095 [Eh]
	 Total Energy              =    -286.8043987989385073 [Eh]

	 ================> DF-SCS-MP2 Energies <==================
	-----------------------------------------------------------
	 SCS Same-Spin Scale       =       0.3333333333333333 [-]
	 SCS Opposite-Spin Scale   =       1.2000000000000000 [-]
	 SCS Same-Spin Energy      =      -0.0879107571804755 [Eh]
	 SCS Opposite-Spin Energy  =      -0.8905177767090996 [Eh]
	 SCS Correlation Energy    =      -0.9784285338895751 [Eh]
	 SCS Total Energy          =    -286.7769969140290982 [Eh]
	-----------------------------------------------------------

*** Psi4 exiting successfully. Buy a developer a beer!
