                               Psi4 1.3.2 release

  ==> Input File <==

--------------------------------------------------------------------------
molecule {
0 1
N           -2.342609240876    -0.000176467513     0.116758348253
C           -0.941853110765    -0.000051204349     0.010371871165
C           -0.229073707438     1.205805369689     0.006176318036
C           -0.228948395201    -1.205832910139     0.004992054268
C            1.163021216147     1.202560301327    -0.028809080190
C            1.163146020339    -1.202416312749    -0.029994820759
C            1.869456080665     0.000113838775    -0.043521374654
H           -0.772134754992     2.149032425409     0.022626572624
H           -0.771913645022    -2.149128451749     0.020522365183
H            1.697636192274     2.149339255619    -0.038156963096
H            1.697859964148    -2.149131532425    -0.040274229162
H            2.955347611972     0.000180000079    -0.071183597650
H           -2.773090620968    -0.830644437326    -0.277405525618
H           -2.773165127627     0.830672336532    -0.276516471690
}
memory 700MB
set_num_threads(1)
psi4_io.set_default_path("/scratch/bdw2292")
set freeze_core True
E, wfn = energy('mp2/6-311++G(2d,2p)',return_wfn=True)
oeprop(wfn,"DIPOLE","GRID_ESP")
clean()
--------------------------------------------------------------------------

    Molecular point group: c1

    Geometry (in Angstrom), charge = 0, multiplicity = 1:

       Center              X                  Y                   Z               Mass
    ------------   -----------------  -----------------  -----------------  -----------------
         N           -2.342609240876    -0.000176467513     0.116758348253    14.003074004430
         C           -0.941853110765    -0.000051204349     0.010371871165    12.000000000000
         C           -0.229073707438     1.205805369689     0.006176318036    12.000000000000
         C           -0.228948395201    -1.205832910139     0.004992054268    12.000000000000
         C            1.163021216147     1.202560301327    -0.028809080190    12.000000000000
         C            1.163146020339    -1.202416312749    -0.029994820759    12.000000000000
         C            1.869456080665     0.000113838775    -0.043521374654    12.000000000000
         H           -0.772134754992     2.149032425409     0.022626572624     1.007825032230
         H           -0.771913645022    -2.149128451749     0.020522365183     1.007825032230
         H            1.697636192274     2.149339255619    -0.038156963096     1.007825032230
         H            1.697859964148    -2.149131532425    -0.040274229162     1.007825032230
         H            2.955347611972     0.000180000079    -0.071183597650     1.007825032230
         H           -2.773090620968    -0.830644437326    -0.277405525618     1.007825032230
         H           -2.773165127627     0.830672336532    -0.276516471690     1.007825032230

  Charge       = 0
  Multiplicity = 1
  Basis Set: 6-311++G(2D,2P)
    Blend: 6-311++G(2D,2P)
  Basis Set: (6-311++G(2D,2P) AUX)
    Blend: AUG-CC-PVTZ-JKFIT

    Orbital Energies [Eh]
    ---------------------

    Doubly Occupied:

       1A    -15.566448     2A    -11.278434     3A    -11.236334
       4A    -11.236299     5A    -11.225375     6A    -11.225357
       7A    -11.221063     8A     -1.223828     9A     -1.127215
      10A     -1.012685    11A     -0.986428    12A     -0.832321
      13A     -0.812328    14A     -0.704263    15A     -0.682556
      16A     -0.654843    17A     -0.598714    18A     -0.593336
      19A     -0.581870    20A     -0.533996    21A     -0.507256
      22A     -0.490334    23A     -0.449398    24A     -0.336057
      25A     -0.296961

  @DF-RHF Final Energy:  -285.81658191239978

   => Energetics <=

    Nuclear Repulsion Energy =            271.2300767759497262
    One-Electron Energy =                -923.2659159405973242
    Two-Electron Energy =                 366.2192572522477576
    Total Energy =                       -285.8165819123997835
  Basis Set: (6-311++G(2D,2P) AUX)
    Blend: AUG-CC-PVTZ-RI
	 Reference Energy          =    -285.8165819123997835 [Eh]
	 Singles Energy            =      -0.0000000000000000 [Eh]
	 Same-Spin Energy          =      -0.2783809848038227 [Eh]
	 Opposite-Spin Energy      =      -0.7886929470668589 [Eh]
	 Correlation Energy        =      -1.0670739318706817 [Eh]
	 Total Energy              =    -286.8836558442704927 [Eh]

	 ================> DF-SCS-MP2 Energies <==================
	-----------------------------------------------------------
	 SCS Same-Spin Scale       =       0.3333333333333333 [-]
	 SCS Opposite-Spin Scale   =       1.2000000000000000 [-]
	 SCS Same-Spin Energy      =      -0.0927936616012742 [Eh]
	 SCS Opposite-Spin Energy  =      -0.9464315364802306 [Eh]
	 SCS Correlation Energy    =      -1.0392251980815048 [Eh]
	 SCS Total Energy          =    -286.8558071104812939 [Eh]
	-----------------------------------------------------------

  Dipole Moment: [D]
     X:    -0.9111      Y:     0.0006      Z:    -1.1217     Total:     1.4451

*** Psi4 exiting successfully. Buy a developer a beer!
