                               Psi4 1.3.2 release

  ==> Input File <==

--------------------------------------------------------------------------
molecule {
0 1
 C    1.065700   -0.025700   -0.070900
 H    0.701600    0.529100   -0.938400
 H    0.701600   -1.054300   -0.117600
 H    0.701600    0.448200    0.843300
 H    2.157900   -0.025700   -0.070900
}
memory 700MB
set_num_threads(1)
psi4_io.set_default_path("/scratch/bdw2292")
optimize('mp2/6-31G*')
clean()
--------------------------------------------------------------------------

    Molecular point group: c1
  Charge       = 0
  Multiplicity = 1
  Basis Set: 6-31G*
    Blend: 6-31G*
  Basis Set: (6-31G* AUX)
    Blend: CC-PVDZ-JKFIT
  @DF-RHF Final Energy:   -40.19498741550002
    Total Energy =                        -40.1949874155000231
  Basis Set: (6-31G* AUX)
    Blend: CC-PVDZ-RI
    Molecular point group: c1
  Basis Set: 6-31G*
    Blend: 6-31G*
  Basis Set: (6-31G* AUX)
    Blend: CC-PVDZ-JKFIT
  Basis Set: (6-31G* AUX)
    Blend: CC-PVDZ-JKFIT
	 Reference Energy          =     -40.1949874155000231 [Eh]
	 Singles Energy            =      -0.0000000000000000 [Eh]
	 Same-Spin Energy          =      -0.0279464534328843 [Eh]
	 Opposite-Spin Energy      =      -0.1140067524934174 [Eh]
	 Correlation Energy        =      -0.1419532059263017 [Eh]
	 Total Energy              =     -40.3369406214263222 [Eh]
	 SCS Total Energy          =     -40.3411110029697539 [Eh]
  Charge       = 0
  Multiplicity = 1
  Basis Set: 6-31G*
    Blend: 6-31G*
  Basis Set: (6-31G* AUX)
    Blend: CC-PVDZ-JKFIT

    Orbital Energies [Eh]
    ---------------------

    Doubly Occupied:

       1A    -11.207786     2A     -0.942168     3A     -0.544681
       4A     -0.544679     5A     -0.544677

  @DF-RHF Final Energy:   -40.19509360847478

   => Energetics <=

    Nuclear Repulsion Energy =             13.4417672086819771
    One-Electron Energy =                 -79.7057379930286913
    Two-Electron Energy =                  26.0688771758719326
    Total Energy =                        -40.1950936084747781

  Dipole Moment: [D]
     X:     0.0000      Y:     0.0000      Z:    -0.0000     Total:     0.0000

  Basis Set: (6-31G* AUX)
    Blend: CC-PVDZ-RI
    Molecular point group: c1
  Basis Set: 6-31G*
    Blend: 6-31G*
  Basis Set: (6-31G* AUX)
    Blend: CC-PVDZ-JKFIT
  Basis Set: (6-31G* AUX)
    Blend: CC-PVDZ-JKFIT
	 Reference Energy          =     -40.1950936084747781 [Eh]
	 Singles Energy            =      -0.0000000000000000 [Eh]
	 Same-Spin Energy          =      -0.0279571748426006 [Eh]
	 Opposite-Spin Energy      =      -0.1139068487005635 [Eh]
	 Correlation Energy        =      -0.1418640235431641 [Eh]
	 Total Energy              =     -40.3369576320179419 [Eh]

	 ================> DF-SCS-MP2 Energies <==================
	-----------------------------------------------------------
	 SCS Same-Spin Scale       =       0.3333333333333333 [-]
	 SCS Opposite-Spin Scale   =       1.2000000000000000 [-]
	 SCS Same-Spin Energy      =      -0.0093190582808669 [Eh]
	 SCS Opposite-Spin Energy  =      -0.1366882184406762 [Eh]
	 SCS Correlation Energy    =      -0.1460072767215431 [Eh]
	 SCS Total Energy          =     -40.3411008851963189 [Eh]
	-----------------------------------------------------------

  -Total Gradient:
     Atom            X                  Y                   Z
    ------   -----------------  -----------------  -----------------
       1        0.000004360322    -0.000001147682    -0.000000126258
       2        0.000036333399    -0.000054892235     0.000087760830
       3        0.000034915195     0.000101333755     0.000004542075
       4        0.000036126661    -0.000046517749    -0.000092123908
       5       -0.000111735578     0.000001223911    -0.000000052739

  **** Optimization is complete! (in 2 steps) ****
    Final optimized geometry and variables:
    Molecular point group: c1

    Geometry (in Angstrom), charge = 0, multiplicity = 1:

    C            0.000001138234    -0.000001519993     0.000000015027
    H           -0.363156167621     0.553414948574    -0.865343939711
    H           -0.363179981210    -1.026114404377    -0.046589349107
    H           -0.363157803529     0.472721678739     0.911933417928
    H            1.089480399602    -0.000004124634    -0.000000308039

*** Psi4 exiting successfully. Buy a developer a beer!
