                               Psi4 1.3.2 release

  ==> Input File <==

--------------------------------------------------------------------------
molecule {
0 1
C            0.000001138234    -0.000001519993     0.000000015027
H           -0.363156167621     0.553414948574    -0.865343939711
H           -0.363179981210    -1.026114404377    -0.046589349107
H           -0.363157803529     0.472721678739     0.911933417928
H            1.089480399602    -0.000004124634    -0.000000308039
}
memory 700MB
set_num_threads(1)
psi4_io.set_default_path("/scratch/bdw2292")
set freeze_core True
E, wfn = energy('mp2/6-311G**',return_wfn=True)
gdma(wfn)
fchk(wfn, "methane-dma.fchk")
clean()
--------------------------------------------------------------------------

    Molecular point group: c1

    Geometry (in Angstrom), charge = 0, multiplicity = 1:

       Center              X                  Y                   Z               Mass
    ------------   -----------------  -----------------  -----------------  -----------------
         C            0.000001138234    -0.000001519993     0.000000015027    12.000000000000
         H           -0.363156167621     0.553414948574    -0.865343939711     1.007825032230
         H           -0.363179981210    -1.026114404377    -0.046589349107     1.007825032230
         H           -0.363157803529     0.472721678739     0.911933417928     1.007825032230
         H            1.089480399602    -0.000004124634    -0.000000308039     1.007825032230

  Charge       = 0
  Multiplicity = 1
  Basis Set: 6-311G**
    Blend: 6-311G**
  Basis Set: (6-311G** AUX)
    Blend: CC-PVTZ-JKFIT

    Orbital Energies [Eh]
    ---------------------

    Doubly Occupied:

       1A    -11.207595     2A     -0.942845     3A     -0.544745
       4A     -0.544743     5A     -0.544741

  @DF-RHF Final Energy:   -40.20893954178283

   => Energetics <=

    Nuclear Repulsion Energy =             13.4417672086824460
    One-Electron Energy =                 -79.7320751533488874
    Two-Electron Energy =                  26.0813684028836121
    Total Energy =                        -40.2089395417828257

  Dipole Moment: [D]
     X:     0.0000      Y:     0.0000      Z:    -0.0000     Total:     0.0000

  Basis Set: (6-311G** AUX)
    Blend: CC-PVTZ-RI
	 Reference Energy          =     -40.2089395417828257 [Eh]
	 Singles Energy            =      -0.0000000000000000 [Eh]
	 Same-Spin Energy          =      -0.0320139053366387 [Eh]
	 Opposite-Spin Energy      =      -0.1382612103145457 [Eh]
	 Correlation Energy        =      -0.1702751156511844 [Eh]
	 Total Energy              =     -40.3792146574340123 [Eh]

	 ================> DF-SCS-MP2 Energies <==================
	-----------------------------------------------------------
	 SCS Same-Spin Scale       =       0.3333333333333333 [-]
	 SCS Opposite-Spin Scale   =       1.2000000000000000 [-]
	 SCS Same-Spin Energy      =      -0.0106713017788796 [Eh]
	 SCS Opposite-Spin Energy  =      -0.1659134523774549 [Eh]
	 SCS Correlation Energy    =      -0.1765847541563345 [Eh]
	 SCS Total Energy          =     -40.3855242959391632 [Eh]
	-----------------------------------------------------------

*** Psi4 exiting successfully. Buy a developer a beer!
