 Gaussian 09, Revision A.02,
 Gaussian 09:  EM64L-G09RevA.02 11-Jun-2009

 ----------------------------------------------------------------------
 #P MP2/6-311++G(2d,2p) Sp Density=MP2 SCF=Save Guess=Huckel MaxDisk=10
 0GB
 ----------------------------------------------------------------------

 ---------------------------------------------------------
 methanol Gaussian SP Calculation on node36.bme.utexas.edu
 ---------------------------------------------------------
 Symbolic Z-matrix:
 Charge =  0 Multiplicity = 1

                         Standard orientation:
 ---------------------------------------------------------------------
 Center     Atomic      Atomic             Coordinates (Angstroms)
 Number     Number       Type             X           Y           Z
 ---------------------------------------------------------------------
      1          8           0        0.753279    0.123530    0.000000
      2          6           0       -0.669155   -0.018939    0.000000
      3          1           0       -1.028050   -0.545736    0.891067
      4          1           0       -1.028048   -0.545754   -0.891057
      5          1           0       -1.081967    0.990135   -0.000011
      6          1           0        1.126767   -0.773249    0.000000
 ---------------------------------------------------------------------

 SCF Done:  E(RHF) =  -115.083486037     A.U. after   12 cycles
 E2 =    -0.3925640116D+00 EUMP2 =    -0.11547605004886D+03

 The electronic state is 1-A.
 Alpha  occ. eigenvalues --  -20.56065 -11.27289  -1.35380  -0.92466  -0.68866
 Alpha  occ. eigenvalues --   -0.61884  -0.59111  -0.50644  -0.45188
 Alpha virt. eigenvalues --    0.03908   0.06349   0.07197   0.07953   0.12684
 Alpha virt. eigenvalues --    0.14682   0.15921   0.18214   0.27578   0.28447
 Alpha virt. eigenvalues --    0.28813   0.28925   0.31003   0.32562   0.34029

 Mulliken atomic charges:
              1
     1  O   -0.434451
     2  C   -0.005931
     3  H    0.061748
     4  H    0.061748
     5  H    0.082920
     6  H    0.233966
 Sum of Mulliken atomic charges =   0.00000

 Dipole moment (field-independent basis, Debye):
    X=             -0.9635    Y=             -1.5333    Z=              0.0000  Tot=              1.8108
 Quadrupole moment (field-independent basis, Debye-Ang):
   XX=            -13.3166   YY=            -12.3526   ZZ=            -14.1106
   XY=             -2.2900   XZ=              0.0000   YZ=              0.0000

 Normal termination of Gaussian 09 at Sun Dec 29 12:24:01 2019.
