 Gaussian 09, Revision A.02,
 Gaussian 09:  EM64L-G09RevA.02 11-Jun-2009

 --------------------------------------------------------------------
 #P opt=(maxcycle=400) MP2/6-31G* Guess=INDO MaxDisk=100GB SCRF=(PCM)
 --------------------------------------------------------------------

 ---------------------------------------------------------
 methanol Gaussian SP Calculation on node36.bme.utexas.edu
 ---------------------------------------------------------
 Symbolic Z-matrix:
 Charge =  0 Multiplicity = 1

 SCF Done:  E(RHF) =  -115.039897281     A.U. after   12 cycles
 E2 =    -0.3110443539D+00 EUMP2 =    -0.11535094163518D+03
 SCF Done:  E(RHF) =  -115.039795544     A.U. after   12 cycles
 E2 =    -0.3119096014D+00 EUMP2 =    -0.11535170514575D+03
 SCF Done:  E(RHF) =  -115.040013637     A.U. after    9 cycles
 E2 =    -0.3117708576D+00 EUMP2 =    -0.11535178449447D+03
 SCF Done:  E(RHF) =  -115.040012635     A.U. after    8 cycles
 E2 =    -0.3117724190D+00 EUMP2 =    -0.11535178505411D+03
 Optimization completed.
    -- Stationary point found.

                         Standard orientation:
 ---------------------------------------------------------------------
 Center     Atomic      Atomic             Coordinates (Angstroms)
 Number     Number       Type             X           Y           Z
 ---------------------------------------------------------------------
      1          8           0        0.753279    0.123530    0.000000
      2          6           0       -0.669155   -0.018939    0.000000
      3          1           0       -1.028050   -0.545736    0.891067
      4          1           0       -1.028048   -0.545754   -0.891057
      5          1           0       -1.081967    0.990135   -0.000011
      6          1           0        1.126767   -0.773249    0.000001
 ---------------------------------------------------------------------

 The electronic state is 1-A.
 Alpha  occ. eigenvalues --  -20.56321 -11.26948  -1.34933  -0.91997  -0.68365
 Alpha  occ. eigenvalues --   -0.61486  -0.58709  -0.50259  -0.44822
 Alpha virt. eigenvalues --    0.23134   0.28357   0.32387   0.33304   0.38136
 Alpha virt. eigenvalues --    0.76489   0.77516   0.78872   1.04875   1.12770
 Alpha virt. eigenvalues --    1.13626   1.17500   1.20757   1.24622   1.26602

 Mulliken atomic charges:
              1
     1  O   -0.771421
     2  C   -0.177907
     3  H    0.158626
     4  H    0.158627
     5  H    0.174479
     6  H    0.457596
 Sum of Mulliken atomic charges =   0.00000

 Dipole moment (field-independent basis, Debye):
    X=             -1.1778    Y=             -1.9256    Z=              0.0000  Tot=              2.2572
 Quadrupole moment (field-independent basis, Debye-Ang):
   XX=            -12.6360   YY=            -11.8924   ZZ=            -13.6103
   XY=             -2.4042   XZ=              0.0000   YZ=              0.0000

 Normal termination of Gaussian 09 at Sun Dec 29 12:23:52 2019.
