 Gaussian 09, Revision A.02,
 Gaussian 09:  EM64L-G09RevA.02 11-Jun-2009

 --------------------------------------------
 #P MP2/6-311G** Sp Density=MP2 MaxDisk=100GB
 --------------------------------------------

 -------------------------------------------------------
 methanol Gaussian Optimization on node36.bme.utexas.edu
 -------------------------------------------------------
 Symbolic Z-matrix:
 Charge =  0 Multiplicity = 1

                         Standard orientation:
 ---------------------------------------------------------------------
 Center     Atomic      Atomic             Coordinates (Angstroms)
 Number     Number       Type             X           Y           Z
 ---------------------------------------------------------------------
      1          8           0        0.753279    0.123530    0.000000
      2          6           0       -0.669155   -0.018939    0.000000
      3          1           0       -1.028050   -0.545736    0.891067
      4          1           0       -1.028048   -0.545754   -0.891057
      5          1           0       -1.081967    0.990135   -0.000011
      6          1           0        1.126767   -0.773249    0.000000
 ---------------------------------------------------------------------

 SCF Done:  E(RHF) =  -115.073924866     A.U. after   11 cycles
 E2 =    -0.3621938195D+00 EUMP2 =    -0.11543611868508D+03

 The electronic state is 1-A.
 Alpha  occ. eigenvalues --  -20.54589 -11.27108  -1.34586  -0.92138  -0.68181
 Alpha  occ. eigenvalues --   -0.61513  -0.58504  -0.50080  -0.44709
 Alpha virt. eigenvalues --    0.15303   0.18740   0.22499   0.23110   0.33979
 Alpha virt. eigenvalues --    0.45482   0.47761   0.57742   0.67642   0.72617
 Alpha virt. eigenvalues --    0.78479   0.79650   0.90003   1.02422   1.05156

 Mulliken atomic charges:
              1
     1  O   -0.414507
     2  C   -0.084180
     3  H    0.081720
     4  H    0.081720
     5  H    0.104236
     6  H    0.231011
 Sum of Mulliken atomic charges =   0.00000

 Dipole moment (field-independent basis, Debye):
    X=             -0.8731    Y=             -1.5414    Z=              0.0000  Tot=              1.7715
 Quadrupole moment (field-independent basis, Debye-Ang):
   XX=            -12.8942   YY=            -12.1580   ZZ=            -13.7489
   XY=             -2.2240   XZ=              0.0000   YZ=              0.0000

 Normal termination of Gaussian 09 at Sun Dec 29 12:23:54 2019.
