                               Psi4 1.3.2 release

  ==> Input File <==

--------------------------------------------------------------------------
molecule {
0 1
O            0.623442592277    -1.148810321344    -0.204080494062
N            0.737116854214     1.103895261379     0.103460803212
C           -1.453554290629     0.053453378925     0.078840133141
C            0.051403011636    -0.079859243555    -0.011455887265
H           -1.900046433314    -0.914034949753    -0.144498510562
H           -1.751573834820     0.361881520214     1.085463088582
H           -1.822380866773     0.800880240907    -0.628419451774
H            1.741406678851     1.034601282874     0.201668024762
H            0.291523402723     1.925628061735     0.484839076705
}
memory 700MB
set_num_threads(1)
psi4_io.set_default_path("/scratch/bdw2292")
set freeze_core True
E, wfn = energy('mp2/6-311++G(2d,2p)',return_wfn=True)
oeprop(wfn,"DIPOLE","GRID_ESP")
clean()
--------------------------------------------------------------------------

    Molecular point group: c1

    Geometry (in Angstrom), charge = 0, multiplicity = 1:

       Center              X                  Y                   Z               Mass
    ------------   -----------------  -----------------  -----------------  -----------------
         O            0.623442592277    -1.148810321344    -0.204080494062    15.994914619570
         N            0.737116854214     1.103895261379     0.103460803212    14.003074004430
         C           -1.453554290629     0.053453378925     0.078840133141    12.000000000000
         C            0.051403011636    -0.079859243555    -0.011455887265    12.000000000000
         H           -1.900046433314    -0.914034949753    -0.144498510562     1.007825032230
         H           -1.751573834820     0.361881520214     1.085463088582     1.007825032230
         H           -1.822380866773     0.800880240907    -0.628419451774     1.007825032230
         H            1.741406678851     1.034601282874     0.201668024762     1.007825032230
         H            0.291523402723     1.925628061735     0.484839076705     1.007825032230

  Charge       = 0
  Multiplicity = 1
  Basis Set: 6-311++G(2D,2P)
    Blend: 6-311++G(2D,2P)
  Basis Set: (6-311++G(2D,2P) AUX)
    Blend: AUG-CC-PVTZ-JKFIT

    Orbital Energies [Eh]
    ---------------------

    Doubly Occupied:

       1A    -20.523327     2A    -15.586821     3A    -11.358716
       4A    -11.240068     5A     -1.378028     6A     -1.212005
       7A     -1.006911     8A     -0.798214     9A     -0.722342
      10A     -0.665511    11A     -0.616549    12A     -0.587341
      13A     -0.561982    14A     -0.525537    15A     -0.429391
      16A     -0.416510

  @DF-RHF Final Energy:  -208.04816197057201

   => Energetics <=

    Nuclear Repulsion Energy =            121.3031399423290395
    One-Electron Energy =                -523.4440973610281844
    Two-Electron Energy =                 194.0927954481271343
    Total Energy =                       -208.0481619705720107
  Basis Set: (6-311++G(2D,2P) AUX)
    Blend: AUG-CC-PVTZ-RI
	 Reference Energy          =    -208.0481619705720107 [Eh]
	 Singles Energy            =      -0.0000000000000000 [Eh]
	 Same-Spin Energy          =      -0.1803411011920321 [Eh]
	 Opposite-Spin Energy      =      -0.5316505256343522 [Eh]
	 Correlation Energy        =      -0.7119916268263843 [Eh]
	 Total Energy              =    -208.7601535973983857 [Eh]

	 ================> DF-SCS-MP2 Energies <==================
	-----------------------------------------------------------
	 SCS Same-Spin Scale       =       0.3333333333333333 [-]
	 SCS Opposite-Spin Scale   =       1.2000000000000000 [-]
	 SCS Same-Spin Energy      =      -0.0601137003973440 [Eh]
	 SCS Opposite-Spin Energy  =      -0.6379806307612227 [Eh]
	 SCS Correlation Energy    =      -0.6980943311585667 [Eh]
	 SCS Total Energy          =    -208.7462563017305683 [Eh]
	-----------------------------------------------------------

  Dipole Moment: [D]
     X:    -1.4694      Y:     3.7942      Z:     1.2689     Total:     4.2621

*** Psi4 exiting successfully. Buy a developer a beer!
