                               Psi4 1.3.2 release

  ==> Input File <==

--------------------------------------------------------------------------
molecule {
0 1
 O    0.607300   -1.165700    0.001800
 N    0.752200    1.130600    0.001500
 C   -1.427500    0.096900    0.001300
 C    0.068000   -0.061800   -0.004600
 H   -1.876800   -0.690600   -0.610100
 H   -1.791700    0.014000    1.028800
 H   -1.727400    1.065500   -0.408400
 H    1.766700    1.149200    0.003100
 H    0.281500    2.029800    0.008100
}
memory 700MB
set_num_threads(1)
psi4_io.set_default_path("/scratch/bdw2292")
optimize('mp2/6-31G*')
clean()
--------------------------------------------------------------------------

    Molecular point group: c1
  Charge       = 0
  Multiplicity = 1
  Basis Set: 6-31G*
    Blend: 6-31G*
  Basis Set: (6-31G* AUX)
    Blend: CC-PVDZ-JKFIT
  @DF-RHF Final Energy:  -207.97158263419018
    Total Energy =                       -207.9715826341901845
  Basis Set: (6-31G* AUX)
    Blend: CC-PVDZ-RI
    Molecular point group: c1
  Basis Set: 6-31G*
    Blend: 6-31G*
  Basis Set: (6-31G* AUX)
    Blend: CC-PVDZ-JKFIT
  Basis Set: (6-31G* AUX)
    Blend: CC-PVDZ-JKFIT
	 Reference Energy          =    -207.9715826341901845 [Eh]
	 Singles Energy            =      -0.0000000000000000 [Eh]
	 Same-Spin Energy          =      -0.1584563607374402 [Eh]
	 Opposite-Spin Energy      =      -0.4534023056645446 [Eh]
	 Correlation Energy        =      -0.6118586664019848 [Eh]
	 Total Energy              =    -208.5834413005921704 [Eh]
	 SCS Total Energy          =    -208.5684841879001112 [Eh]
  @DF-RHF Final Energy:  -207.97284015619243
    Total Energy =                       -207.9728401561924329
  @DF-RHF Final Energy:  -207.97258245714349
    Total Energy =                       -207.9725824571434885
  @DF-RHF Final Energy:  -207.97314420293645
    Total Energy =                       -207.9731442029364530
  @DF-RHF Final Energy:  -207.97324812102894
    Total Energy =                       -207.9732481210289450
  @DF-RHF Final Energy:  -207.97328234673884
    Total Energy =                       -207.9732823467388414
  @DF-RHF Final Energy:  -207.97316438195350
    Total Energy =                       -207.9731643819534952
  @DF-RHF Final Energy:  -207.97299148513119
    Total Energy =                       -207.9729914851311889
  @DF-RHF Final Energy:  -207.97317434995233
    Total Energy =                       -207.9731743499523304
  @DF-RHF Final Energy:  -207.97296151685100
    Total Energy =                       -207.9729615168510009
  @DF-RHF Final Energy:  -207.97292754718359
    Total Energy =                       -207.9729275471835876
  @DF-RHF Final Energy:  -207.97322655018962
    Total Energy =                       -207.9732265501896222
  @DF-RHF Final Energy:  -207.97331317336116
    Total Energy =                       -207.9733131733611629
  @DF-RHF Final Energy:  -207.97329065189479
    Total Energy =                       -207.9732906518947857
  @DF-RHF Final Energy:  -207.97323605253786
    Total Energy =                       -207.9732360525378567
  @DF-RHF Final Energy:  -207.97323630790078
    Total Energy =                       -207.9732363079007769
  @DF-RHF Final Energy:  -207.97322357831655
    Total Energy =                       -207.9732235783165493
  @DF-RHF Final Energy:  -207.97321371381551
    Total Energy =                       -207.9732137138155110
  @DF-RHF Final Energy:  -207.97317563807252
    Total Energy =                       -207.9731756380725187
  Charge       = 0
  Multiplicity = 1
  Basis Set: 6-31G*
    Blend: 6-31G*
  Basis Set: (6-31G* AUX)
    Blend: CC-PVDZ-JKFIT

    Orbital Energies [Eh]
    ---------------------

    Doubly Occupied:

       1A    -20.523890     2A    -15.586954     3A    -11.356009
       4A    -11.238656     5A     -1.369786     6A     -1.205149
       7A     -1.003830     8A     -0.791904     9A     -0.716822
      10A     -0.658029    11A     -0.612522    12A     -0.578766
      13A     -0.559133    14A     -0.520450    15A     -0.420396
      16A     -0.407659

  @DF-RHF Final Energy:  -207.97319031356403

   => Energetics <=

    Nuclear Repulsion Energy =            121.3031399423192909
    One-Electron Energy =                -523.4527544152701921
    Two-Electron Energy =                 194.1764241593868974
    Total Energy =                       -207.9731903135640323

  Dipole Moment: [D]
     X:    -1.3460      Y:     3.6952      Z:     1.3495     Total:     4.1578

  Basis Set: (6-31G* AUX)
    Blend: CC-PVDZ-RI
    Molecular point group: c1
  Basis Set: 6-31G*
    Blend: 6-31G*
  Basis Set: (6-31G* AUX)
    Blend: CC-PVDZ-JKFIT
  Basis Set: (6-31G* AUX)
    Blend: CC-PVDZ-JKFIT
	 Reference Energy          =    -207.9731903135640323 [Eh]
	 Singles Energy            =      -0.0000000000000000 [Eh]
	 Same-Spin Energy          =      -0.1582526854631766 [Eh]
	 Opposite-Spin Energy      =      -0.4530481339944569 [Eh]
	 Correlation Energy        =      -0.6113008194576335 [Eh]
	 Total Energy              =    -208.5844911330216576 [Eh]

	 ================> DF-SCS-MP2 Energies <==================
	-----------------------------------------------------------
	 SCS Same-Spin Scale       =       0.3333333333333333 [-]
	 SCS Opposite-Spin Scale   =       1.2000000000000000 [-]
	 SCS Same-Spin Energy      =      -0.0527508951543922 [Eh]
	 SCS Opposite-Spin Energy  =      -0.5436577607933483 [Eh]
	 SCS Correlation Energy    =      -0.5964086559477405 [Eh]
	 SCS Total Energy          =    -208.5695989695117589 [Eh]
	-----------------------------------------------------------

  -Total Gradient:
     Atom            X                  Y                   Z
    ------   -----------------  -----------------  -----------------
       1       -0.000018634988     0.000002760516     0.000004415191
       2        0.000017527697     0.000040502877     0.000007787847
       3        0.000042122413    -0.000009342241    -0.000013018037
       4       -0.000022607130    -0.000029180447     0.000002116315
       5       -0.000019517419    -0.000026342341    -0.000008965567
       6       -0.000005064119     0.000002863952     0.000024579623
       7       -0.000005912620     0.000009542210    -0.000013354768
       8        0.000027789660    -0.000013371414    -0.000011435320
       9       -0.000015703493     0.000022566888     0.000007874715

  **** Optimization is complete! (in 20 steps) ****
    Final optimized geometry and variables:
    Molecular point group: c1

    Geometry (in Angstrom), charge = 0, multiplicity = 1:

    O            0.623442592277    -1.148810321344    -0.204080494062
    N            0.737116854214     1.103895261379     0.103460803212
    C           -1.453554290629     0.053453378925     0.078840133141
    C            0.051403011636    -0.079859243555    -0.011455887265
    H           -1.900046433314    -0.914034949753    -0.144498510562
    H           -1.751573834820     0.361881520214     1.085463088582
    H           -1.822380866773     0.800880240907    -0.628419451774
    H            1.741406678851     1.034601282874     0.201668024762
    H            0.291523402723     1.925628061735     0.484839076705

*** Psi4 exiting successfully. Buy a developer a beer!
