                               Psi4 1.3.2 release

  ==> Input File <==

--------------------------------------------------------------------------
molecule {
0 1
O            0.623442592277    -1.148810321344    -0.204080494062
N            0.737116854214     1.103895261379     0.103460803212
C           -1.453554290629     0.053453378925     0.078840133141
C            0.051403011636    -0.079859243555    -0.011455887265
H           -1.900046433314    -0.914034949753    -0.144498510562
H           -1.751573834820     0.361881520214     1.085463088582
H           -1.822380866773     0.800880240907    -0.628419451774
H            1.741406678851     1.034601282874     0.201668024762
H            0.291523402723     1.925628061735     0.484839076705
}
memory 700MB
set_num_threads(1)
psi4_io.set_default_path("/scratch/bdw2292")
set freeze_core True
E, wfn = energy('mp2/6-311G**',return_wfn=True)
gdma(wfn)
fchk(wfn, "acetamide-dma.fchk")
clean()
--------------------------------------------------------------------------

    Molecular point group: c1

    Geometry (in Angstrom), charge = 0, multiplicity = 1:

       Center              X                  Y                   Z               Mass
    ------------   -----------------  -----------------  -----------------  -----------------
         O            0.623442592277    -1.148810321344    -0.204080494062    15.994914619570
         N            0.737116854214     1.103895261379     0.103460803212    14.003074004430
         C           -1.453554290629     0.053453378925     0.078840133141    12.000000000000
         C            0.051403011636    -0.079859243555    -0.011455887265    12.000000000000
         H           -1.900046433314    -0.914034949753    -0.144498510562     1.007825032230
         H           -1.751573834820     0.361881520214     1.085463088582     1.007825032230
         H           -1.822380866773     0.800880240907    -0.628419451774     1.007825032230
         H            1.741406678851     1.034601282874     0.201668024762     1.007825032230
         H            0.291523402723     1.925628061735     0.484839076705     1.007825032230

  Charge       = 0
  Multiplicity = 1
  Basis Set: 6-311G**
    Blend: 6-311G**
  Basis Set: (6-311G** AUX)
    Blend: CC-PVTZ-JKFIT

    Orbital Energies [Eh]
    ---------------------

    Doubly Occupied:

       1A    -20.511712     2A    -15.579024     3A    -11.353879
       4A    -11.239156     5A     -1.371930     6A     -1.206337
       7A     -1.004423     8A     -0.793034     9A     -0.717371
      10A     -0.660415    11A     -0.613625    12A     -0.581454
      13A     -0.559459    14A     -0.522107    15A     -0.423439
      16A     -0.411104

  @DF-RHF Final Energy:  -208.03346771334000

   => Energetics <=

    Nuclear Repulsion Energy =            121.3031399423290395
    One-Electron Energy =                -523.5762755757340301
    Two-Electron Energy =                 194.2396679200649885
    Total Energy =                       -208.0334677133400021

  Dipole Moment: [D]
     X:    -1.3740      Y:     3.7372      Z:     1.2941     Total:     4.1868

  Basis Set: (6-311G** AUX)
    Blend: CC-PVTZ-RI
	 Reference Energy          =    -208.0334677133400021 [Eh]
	 Singles Energy            =      -0.0000000000000000 [Eh]
	 Same-Spin Energy          =      -0.1685411666979466 [Eh]
	 Opposite-Spin Energy      =      -0.4955175565003527 [Eh]
	 Correlation Energy        =      -0.6640587231982993 [Eh]
	 Total Energy              =    -208.6975264365383111 [Eh]

	 ================> DF-SCS-MP2 Energies <==================
	-----------------------------------------------------------
	 SCS Same-Spin Scale       =       0.3333333333333333 [-]
	 SCS Opposite-Spin Scale   =       1.2000000000000000 [-]
	 SCS Same-Spin Energy      =      -0.0561803888993155 [Eh]
	 SCS Opposite-Spin Energy  =      -0.5946210678004232 [Eh]
	 SCS Correlation Energy    =      -0.6508014566997388 [Eh]
	 SCS Total Energy          =    -208.6842691700397268 [Eh]
	-----------------------------------------------------------

*** Psi4 exiting successfully. Buy a developer a beer!
