 Gaussian 09, Revision A.02,
 Gaussian 09:  EM64L-G09RevA.02 11-Jun-2009

 -------------------------------------------------------------------
 #P MP2/6-311++G** SP SCF=(qc,maxcycle=800) Guess=Indo MaxDisk=100GB
 -------------------------------------------------------------------

 -----------------------------------------------------------------
 methanol Rotatable Bond SP Calculation on bme-nova.bme.utexas.edu
 -----------------------------------------------------------------
 Symbolic Z-matrix:
 Charge =  0 Multiplicity = 1

                         Standard orientation:
 ---------------------------------------------------------------------
 Center     Atomic      Atomic             Coordinates (Angstroms)
 Number     Number       Type             X           Y           Z
 ---------------------------------------------------------------------
      1          8           0       -0.743706    0.130396   -0.003498
      2          6           0        0.675076   -0.018835   -0.002276
      3          1           0        1.120137    0.982144   -0.014652
      4          1           0        0.961054   -0.608160   -0.880814
      5          1           0        0.955221   -0.547999    0.916168
      6          1           0       -1.137219   -0.756140    0.020941
 ---------------------------------------------------------------------

 SCF Done:  E(RHF) =  -115.077634193     a.u. after    8 cycles
 E2 =    -0.3660090619D+00 EUMP2 =    -0.11544364325500D+03

 The electronic state is 1-A.
 Alpha  occ. eigenvalues --  -20.55520 -11.27622  -1.35365  -0.92372  -0.68638
 Alpha  occ. eigenvalues --   -0.62308  -0.59395  -0.50303  -0.44878
 Alpha virt. eigenvalues --    0.03896   0.06400   0.07238   0.08071   0.12596
 Alpha virt. eigenvalues --    0.14686   0.15748   0.18390   0.27863   0.28746
 Alpha virt. eigenvalues --    0.29313   0.29649   0.30749   0.32913   0.34791

 Mulliken atomic charges:
              1
     1  O   -0.392503
     2  C   -0.206848
     3  H    0.131257
     4  H    0.105372
     5  H    0.105630
     6  H    0.257092
 Sum of Mulliken atomic charges =   0.00000

 Dipole moment (field-independent basis, Debye):
    X=              1.1053    Y=             -1.7180    Z=              0.0488  Tot=              2.0434
 Quadrupole moment (field-independent basis, Debye-Ang):
   XX=            -13.1868   YY=            -12.0895   ZZ=            -13.7483
   XY=              2.5590   XZ=             -0.0689   YZ=             -0.0112

 Normal termination of Gaussian 09 at Sat Dec 21 15:14:24 2019.
