 Gaussian 09, Revision A.02,
 Gaussian 09:  EM64L-G09RevA.02 11-Jun-2009

 -------------------------------------------------------------------
 #P MP2/6-311++G** SP SCF=(qc,maxcycle=800) Guess=Indo MaxDisk=100GB
 -------------------------------------------------------------------

 -----------------------------------------------------------------
 methanol Rotatable Bond SP Calculation on bme-nova.bme.utexas.edu
 -----------------------------------------------------------------
 Symbolic Z-matrix:
 Charge =  0 Multiplicity = 1

                         Standard orientation:
 ---------------------------------------------------------------------
 Center     Atomic      Atomic             Coordinates (Angstroms)
 Number     Number       Type             X           Y           Z
 ---------------------------------------------------------------------
      1          8           0       -0.744070   -0.129681    0.003761
      2          6           0        0.675403    0.017354    0.001293
      3          1           0        1.104376   -0.855165   -0.503641
      4          1           0        1.010527    0.100646    1.041189
      5          1           0        0.924370    0.931972   -0.549669
      6          1           0       -1.139128    0.755867   -0.025724
 ---------------------------------------------------------------------

 SCF Done:  E(RHF) =  -115.076870328     a.u. after    8 cycles
 E2 =    -0.3660865551D+00 EUMP2 =    -0.11544295688276D+03

 The electronic state is 1-A.
 Alpha  occ. eigenvalues --  -20.55481 -11.27613  -1.35330  -0.92373  -0.68714
 Alpha  occ. eigenvalues --   -0.62351  -0.59278  -0.50164  -0.44929
 Alpha virt. eigenvalues --    0.03874   0.06381   0.07383   0.08007   0.12643
 Alpha virt. eigenvalues --    0.14709   0.15640   0.18350   0.25779   0.28714
 Alpha virt. eigenvalues --    0.29586   0.30572   0.30715   0.33829   0.35454

 Mulliken atomic charges:
              1
     1  O   -0.388145
     2  C   -0.217893
     3  H    0.130814
     4  H    0.120073
     5  H    0.098285
     6  H    0.256866
 Sum of Mulliken atomic charges =   0.00000

 Dipole moment (field-independent basis, Debye):
    X=              1.0954    Y=              1.7520    Z=             -0.0875  Tot=              2.0681
 Quadrupole moment (field-independent basis, Debye-Ang):
   XX=            -13.2080   YY=            -12.1507   ZZ=            -13.6712
   XY=             -2.4874   XZ=              0.0027   YZ=              0.0153

 Normal termination of Gaussian 09 at Sat Dec 21 15:14:26 2019.
