 Gaussian 09, Revision A.02,
 Gaussian 09:  EM64L-G09RevA.02 11-Jun-2009

 ----------------------------------------------
 #P opt=(,maxcycle=400) HF/6-31G* MaxDisk=100GB
 ----------------------------------------------

 ---------------------------------------------------------------
 methanol Rotatable Bond Optimization on bme-nova.bme.utexas.edu
 ---------------------------------------------------------------
 Symbolic Z-matrix:
 Charge =  0 Multiplicity = 1

 SCF Done:  E(RHF) =  -115.030981714     A.U. after   11 cycles
 SCF Done:  E(RHF) =  -115.033090470     A.U. after   12 cycles
 SCF Done:  E(RHF) =  -115.033243100     A.U. after   10 cycles
 SCF Done:  E(RHF) =  -115.033251947     A.U. after    9 cycles
 Optimization completed.
    -- Stationary point found.

                         Standard orientation:
 ---------------------------------------------------------------------
 Center     Atomic      Atomic             Coordinates (Angstroms)
 Number     Number       Type             X           Y           Z
 ---------------------------------------------------------------------
      1          8           0        0.738462   -0.122726    0.000075
      2          6           0       -0.657848    0.018579   -0.000044
      3          1           0       -0.964324    1.060307   -0.005197
      4          1           0       -1.074768   -0.453137    0.883036
      5          1           0       -1.074941   -0.462349   -0.877924
      6          1           0        1.153422    0.725513   -0.000251
 ---------------------------------------------------------------------

 The electronic state is 1-A.
 Alpha  occ. eigenvalues --  -20.55313 -11.26686  -1.35786  -0.92722  -0.69344
 Alpha  occ. eigenvalues --   -0.61919  -0.59599  -0.49674  -0.44093
 Alpha virt. eigenvalues --    0.22195   0.27834   0.32585   0.33196   0.39536
 Alpha virt. eigenvalues --    0.76312   0.76392   0.79694   1.08399   1.13525
 Alpha virt. eigenvalues --    1.13558   1.18396   1.21832   1.25012   1.27271

 Mulliken atomic charges:
              1
     1  O   -0.734923
     2  C   -0.161470
     3  H    0.137594
     4  H    0.158335
     5  H    0.158600
     6  H    0.441864
 Sum of Mulliken atomic charges =   0.00000

 Dipole moment (field-independent basis, Debye):
    X=             -0.8796    Y=              1.7502    Z=             -0.0015  Tot=              1.9588
 Quadrupole moment (field-independent basis, Debye-Ang):
   XX=            -12.5093   YY=            -12.1485   ZZ=            -13.5397
   XY=              2.2533   XZ=              0.0001   YZ=              0.0006

 Normal termination of Gaussian 09 at Sat Dec 21 15:10:53 2019.
