 Gaussian 09, Revision A.02,
 Gaussian 09:  EM64L-G09RevA.02 11-Jun-2009

 -------------------------------------------------------------------
 #P MP2/6-311++G** SP SCF=(qc,maxcycle=800) Guess=Indo MaxDisk=100GB
 -------------------------------------------------------------------

 -----------------------------------------------------------------
 methanol Rotatable Bond SP Calculation on bme-nova.bme.utexas.edu
 -----------------------------------------------------------------
 Symbolic Z-matrix:
 Charge =  0 Multiplicity = 1

                         Standard orientation:
 ---------------------------------------------------------------------
 Center     Atomic      Atomic             Coordinates (Angstroms)
 Number     Number       Type             X           Y           Z
 ---------------------------------------------------------------------
      1          8           0        0.743561    0.130049   -0.000063
      2          6           0       -0.674692   -0.023171    0.000028
      3          1           0       -0.963356   -0.563211    0.908831
      4          1           0       -0.963412   -0.563782   -0.908417
      5          1           0       -1.112549    0.981603   -0.000274
      6          1           0        1.138984   -0.755974    0.000203
 ---------------------------------------------------------------------

 SCF Done:  E(RHF) =  -115.077890690     a.u. after    8 cycles
 E2 =    -0.3660353602D+00 EUMP2 =    -0.11544392605022D+03

 The electronic state is 1-A.
 Alpha  occ. eigenvalues --  -20.55536 -11.27600  -1.35371  -0.92375  -0.68537
 Alpha  occ. eigenvalues --   -0.62526  -0.59275  -0.50142  -0.45021
 Alpha virt. eigenvalues --    0.03908   0.06407   0.07201   0.08104   0.12593
 Alpha virt. eigenvalues --    0.14636   0.15836   0.18401   0.27820   0.28725
 Alpha virt. eigenvalues --    0.29413   0.29639   0.30752   0.32938   0.34785

 Mulliken atomic charges:
              1
     1  O   -0.392892
     2  C   -0.206056
     3  H    0.105258
     4  H    0.105258
     5  H    0.131686
     6  H    0.256745
 Sum of Mulliken atomic charges =   0.00000

 Dipole moment (field-independent basis, Debye):
    X=             -1.1006    Y=             -1.7164    Z=              0.0006  Tot=              2.0390
 Quadrupole moment (field-independent basis, Debye-Ang):
   XX=            -13.1792   YY=            -12.1485   ZZ=            -13.6877
   XY=             -2.5485   XZ=              0.0008   YZ=             -0.0004

 Normal termination of Gaussian 09 at Sat Dec 21 15:09:56 2019.
