 Gaussian 09, Revision A.02,
 Gaussian 09:  EM64L-G09RevA.02 11-Jun-2009

 -------------------------------------------------------------------
 #P MP2/6-311++G** SP SCF=(qc,maxcycle=800) Guess=Indo MaxDisk=100GB
 -------------------------------------------------------------------

 -----------------------------------------------------------------
 methanol Rotatable Bond SP Calculation on bme-nova.bme.utexas.edu
 -----------------------------------------------------------------
 Symbolic Z-matrix:
 Charge =  0 Multiplicity = 1

                         Standard orientation:
 ---------------------------------------------------------------------
 Center     Atomic      Atomic             Coordinates (Angstroms)
 Number     Number       Type             X           Y           Z
 ---------------------------------------------------------------------
      1          8           0        0.744165   -0.129232    0.003341
      2          6           0       -0.675247    0.021503   -0.003102
      3          1           0       -1.066679   -0.499826   -0.883657
      4          1           0       -0.921320    1.089218   -0.018600
      5          1           0       -1.057643   -0.438819    0.915259
      6          1           0        1.143809    0.754264   -0.021117
 ---------------------------------------------------------------------

 SCF Done:  E(RHF) =  -115.076175637     a.u. after    8 cycles
 E2 =    -0.3661554800D+00 EUMP2 =    -0.11544233111691D+03

 The electronic state is 1-A.
 Alpha  occ. eigenvalues --  -20.55455 -11.27589  -1.35306  -0.92379  -0.68840
 Alpha  occ. eigenvalues --   -0.62089  -0.59317  -0.50302  -0.44788
 Alpha virt. eigenvalues --    0.03852   0.06334   0.07700   0.07807   0.12698
 Alpha virt. eigenvalues --    0.14666   0.15606   0.18323   0.24538   0.28673
 Alpha virt. eigenvalues --    0.30052   0.30746   0.30756   0.34073   0.36542

 Mulliken atomic charges:
              1
     1  O   -0.382443
     2  C   -0.230781
     3  H    0.128307
     4  H    0.100299
     5  H    0.128812
     6  H    0.255806
 Sum of Mulliken atomic charges =   0.00000

 Dipole moment (field-independent basis, Debye):
    X=             -1.0778    Y=              1.7850    Z=             -0.0479  Tot=              2.0857
 Quadrupole moment (field-independent basis, Debye-Ang):
   XX=            -13.2113   YY=            -12.1430   ZZ=            -13.6723
   XY=              2.4147   XZ=             -0.0606   YZ=             -0.0092

 Normal termination of Gaussian 09 at Sat Dec 21 15:11:53 2019.
