 Gaussian 09, Revision A.02,
 Gaussian 09:  EM64L-G09RevA.02 11-Jun-2009

 ----------------------------------------------
 #P opt=(,maxcycle=400) HF/6-31G* MaxDisk=100GB
 ----------------------------------------------

 ---------------------------------------------------------------
 methanol Rotatable Bond Optimization on bme-nova.bme.utexas.edu
 ---------------------------------------------------------------
 Symbolic Z-matrix:
 Charge =  0 Multiplicity = 1

 SCF Done:  E(RHF) =  -115.030894431     A.U. after   11 cycles
 SCF Done:  E(RHF) =  -115.033072729     A.U. after   12 cycles
 SCF Done:  E(RHF) =  -115.033244202     A.U. after   12 cycles
 SCF Done:  E(RHF) =  -115.033251934     A.U. after   12 cycles
 Optimization completed.
    -- Stationary point found.

                         Standard orientation:
 ---------------------------------------------------------------------
 Center     Atomic      Atomic             Coordinates (Angstroms)
 Number     Number       Type             X           Y           Z
 ---------------------------------------------------------------------
      1          8           0       -0.738513   -0.122729    0.000000
      2          6           0        0.657877    0.018653    0.000000
      3          1           0        1.074814   -0.457984   -0.880393
      4          1           0        1.074814   -0.457984    0.880393
      5          1           0        0.964489    1.060257    0.000000
      6          1           0       -1.153272    0.725619    0.000000
 ---------------------------------------------------------------------

 The electronic state is 1-A.
 Alpha  occ. eigenvalues --  -20.55314 -11.26686  -1.35784  -0.92722  -0.69343
 Alpha  occ. eigenvalues --   -0.61914  -0.59598  -0.49681  -0.44092
 Alpha virt. eigenvalues --    0.22196   0.27835   0.32584   0.33193   0.39535
 Alpha virt. eigenvalues --    0.76315   0.76386   0.79689   1.08404   1.13525
 Alpha virt. eigenvalues --    1.13555   1.18391   1.21832   1.25009   1.27282

 Mulliken atomic charges:
              1
     1  O   -0.734916
     2  C   -0.161515
     3  H    0.158467
     4  H    0.158467
     5  H    0.137653
     6  H    0.441845
 Sum of Mulliken atomic charges =   0.00000

 Dipole moment (field-independent basis, Debye):
    X=              0.8802    Y=              1.7504    Z=              0.0000  Tot=              1.9592
 Quadrupole moment (field-independent basis, Debye-Ang):
   XX=            -12.5102   YY=            -12.1473   ZZ=            -13.5404
   XY=             -2.2530   XZ=              0.0000   YZ=              0.0000

 Normal termination of Gaussian 09 at Sat Dec 21 15:13:27 2019.
