 Gaussian 09, Revision A.02,
 Gaussian 09:  EM64L-G09RevA.02 11-Jun-2009

 ----------------------------------------------
 #P opt=(,maxcycle=400) HF/6-31G* MaxDisk=100GB
 ----------------------------------------------

 ---------------------------------------------------------------
 methanol Rotatable Bond Optimization on bme-nova.bme.utexas.edu
 ---------------------------------------------------------------
 Symbolic Z-matrix:
 Charge =  0 Multiplicity = 1

 SCF Done:  E(RHF) =  -115.031806651     A.U. after   11 cycles
 SCF Done:  E(RHF) =  -115.034301667     A.U. after   11 cycles
 SCF Done:  E(RHF) =  -115.034734681     A.U. after   10 cycles
 SCF Done:  E(RHF) =  -115.035104331     A.U. after   12 cycles
 SCF Done:  E(RHF) =  -115.035317366     A.U. after   11 cycles
 SCF Done:  E(RHF) =  -115.035391550     A.U. after   10 cycles
 SCF Done:  E(RHF) =  -115.035415900     A.U. after   12 cycles
 SCF Done:  E(RHF) =  -115.035418131     A.U. after    9 cycles
 SCF Done:  E(RHF) =  -115.035418315     A.U. after   12 cycles
 Optimization completed.
    -- Stationary point found.

                         Standard orientation:
 ---------------------------------------------------------------------
 Center     Atomic      Atomic             Coordinates (Angstroms)
 Number     Number       Type             X           Y           Z
 ---------------------------------------------------------------------
      1          8           0        0.737000    0.120601    0.000000
      2          6           0       -0.655591   -0.019723    0.000002
      3          1           0       -1.076750    0.975928   -0.000377
      4          1           0       -1.012861   -0.543077    0.883727
      5          1           0       -1.012844   -0.543722   -0.883354
      6          1           0        1.140005   -0.735595   -0.000002
 ---------------------------------------------------------------------

 The electronic state is 1-A.
 Alpha  occ. eigenvalues --  -20.55538 -11.26675  -1.36027  -0.92684  -0.69363
 Alpha  occ. eigenvalues --   -0.62086  -0.59534  -0.49734  -0.44328
 Alpha virt. eigenvalues --    0.22683   0.28034   0.32378   0.33056   0.38755
 Alpha virt. eigenvalues --    0.76236   0.77451   0.79850   1.05529   1.13007
 Alpha virt. eigenvalues --    1.15183   1.18945   1.21806   1.25375   1.27028

 Mulliken atomic charges:
              1
     1  O   -0.726163
     2  C   -0.166516
     3  H    0.174418
     4  H    0.140526
     5  H    0.140519
     6  H    0.437215
 Sum of Mulliken atomic charges =   0.00000

 Dipole moment (field-independent basis, Debye):
    X=             -0.8946    Y=             -1.6385    Z=             -0.0001  Tot=              1.8668
 Quadrupole moment (field-independent basis, Debye-Ang):
   XX=            -12.5720   YY=            -12.0517   ZZ=            -13.6326
   XY=             -2.3470   XZ=              0.0001   YZ=             -0.0001

 Normal termination of Gaussian 09 at Sat Dec 21 15:13:21 2019.
