                               Psi4 1.3.2 release

  ==> Input File <==

--------------------------------------------------------------------------
molecule {
0 1
 O    1.023500   -0.100600   -0.009700
 H    0.744600    0.599400    0.599500
 H    1.991400   -0.065600    0.020700
}
memory 700MB
set_num_threads(1)
psi4_io.set_default_path("/scratch/bdw2292")
optimize('mp2/6-31G*')
clean()
--------------------------------------------------------------------------

    Molecular point group: cs
  Charge       = 0
  Multiplicity = 1
  Basis Set: 6-31G*
    Blend: 6-31G*
  Basis Set: (6-31G* AUX)
    Blend: CC-PVDZ-JKFIT
  @DF-RHF Final Energy:   -76.00974613042754
    Total Energy =                        -76.0097461304275441
  Basis Set: (6-31G* AUX)
    Blend: CC-PVDZ-RI
    Molecular point group: cs
  Basis Set: 6-31G*
    Blend: 6-31G*
  Basis Set: (6-31G* AUX)
    Blend: CC-PVDZ-JKFIT
  Basis Set: (6-31G* AUX)
    Blend: CC-PVDZ-JKFIT
	 Reference Energy          =     -76.0097461304275441 [Eh]
	 Singles Energy            =      -0.0000000000000000 [Eh]
	 Same-Spin Energy          =      -0.0485766678706634 [Eh]
	 Opposite-Spin Energy      =      -0.1408422683891534 [Eh]
	 Correlation Energy        =      -0.1894189362598168 [Eh]
	 Total Energy              =     -76.1991650666873568 [Eh]
	 SCS Total Energy          =     -76.1949490751180889 [Eh]
  Charge       = 0
  Multiplicity = 1
  Basis Set: 6-31G*
    Blend: 6-31G*
  Basis Set: (6-31G* AUX)
    Blend: CC-PVDZ-JKFIT

    Orbital Energies [Eh]
    ---------------------

    Doubly Occupied:

       1Ap   -20.562904     2Ap    -1.336428     3Ap    -0.699764
       4Ap    -0.569985     1App   -0.497349

  @DF-RHF Final Energy:   -76.00977839425784

   => Energetics <=

    Nuclear Repulsion Energy =              9.0878924796364338
    One-Electron Energy =                -122.8624797373710464
    Two-Electron Energy =                  37.7648088634767589
    Total Energy =                        -76.0097783942578502

  Dipole Moment: [D]
     X:     1.8321      Y:    -1.2955      Z:     0.0000     Total:     2.2439

  Basis Set: (6-31G* AUX)
    Blend: CC-PVDZ-RI
    Molecular point group: cs
  Basis Set: 6-31G*
    Blend: 6-31G*
  Basis Set: (6-31G* AUX)
    Blend: CC-PVDZ-JKFIT
  Basis Set: (6-31G* AUX)
    Blend: CC-PVDZ-JKFIT
	 Reference Energy          =     -76.0097783942578360 [Eh]
	 Singles Energy            =      -0.0000000000000000 [Eh]
	 Same-Spin Energy          =      -0.0485704355112479 [Eh]
	 Opposite-Spin Energy      =      -0.1408165312576693 [Eh]
	 Correlation Energy        =      -0.1893869667689172 [Eh]
	 Total Energy              =     -76.1991653610267576 [Eh]

	 ================> DF-SCS-MP2 Energies <==================
	-----------------------------------------------------------
	 SCS Same-Spin Scale       =       0.3333333333333333 [-]
	 SCS Opposite-Spin Scale   =       1.2000000000000000 [-]
	 SCS Same-Spin Energy      =      -0.0161901451704160 [Eh]
	 SCS Opposite-Spin Energy  =      -0.1689798375092031 [Eh]
	 SCS Correlation Energy    =      -0.1851699826796191 [Eh]
	 SCS Total Energy          =     -76.1949483769374609 [Eh]
	-----------------------------------------------------------

  -Total Gradient:
     Atom            X                  Y                   Z
    ------   -----------------  -----------------  -----------------
       1       -0.000046293480     0.000032322233     0.000000000000
       2        0.000021668324    -0.000018479650     0.000000000000
       3        0.000024625155    -0.000013842583     0.000000000000

  **** Optimization is complete! (in 2 steps) ****
    Final optimized geometry and variables:
    Molecular point group: cs

    Geometry (in Angstrom), charge = 0, multiplicity = 1:

    O           -0.054496654631     0.038534940133     0.000000000000
    H            0.873105012011     0.317390171806     0.000000000000
    H           -0.008203555903    -0.928967635735     0.000000000000

*** Psi4 exiting successfully. Buy a developer a beer!
