                               Psi4 1.3.2 release

  ==> Input File <==

--------------------------------------------------------------------------
molecule {
0 1
O           -0.054496654631     0.038534940133     0.000000000000
H            0.873105012011     0.317390171806     0.000000000000
H           -0.008203555903    -0.928967635735     0.000000000000
}
memory 700MB
set_num_threads(1)
psi4_io.set_default_path("/scratch/bdw2292")
set freeze_core True
E, wfn = energy('mp2/6-311G**',return_wfn=True)
gdma(wfn)
fchk(wfn, "water-dma.fchk")
clean()
--------------------------------------------------------------------------

    Molecular point group: cs

    Geometry (in Angstrom), charge = 0, multiplicity = 1:

       Center              X                  Y                   Z               Mass
    ------------   -----------------  -----------------  -----------------  -----------------
         O           -0.054496654631     0.038534940133     0.000000000000    15.994914619570
         H            0.873105012011     0.317390171806     0.000000000000     1.007825032230
         H           -0.008203555903    -0.928967635735     0.000000000000     1.007825032230

  Charge       = 0
  Multiplicity = 1
  Basis Set: 6-311G**
    Blend: 6-311G**
  Basis Set: (6-311G** AUX)
    Blend: CC-PVTZ-JKFIT

    Orbital Energies [Eh]
    ---------------------

    Doubly Occupied:

       1Ap   -20.547263     2Ap    -1.335997     3Ap    -0.699382
       4Ap    -0.570798     1App   -0.499138

  @DF-RHF Final Energy:   -76.04542040848322

   => Energetics <=

    Nuclear Repulsion Energy =              9.0878924796372900
    One-Electron Energy =                -122.9614690519479012
    Two-Electron Energy =                  37.8281561638273942
    Total Energy =                        -76.0454204084832099

  Dipole Moment: [D]
     X:     1.7829      Y:    -1.2607      Z:     0.0000     Total:     2.1836

  Basis Set: (6-311G** AUX)
    Blend: CC-PVTZ-RI
	 Reference Energy          =     -76.0454204084832242 [Eh]
	 Singles Energy            =      -0.0000000000000000 [Eh]
	 Same-Spin Energy          =      -0.0546718221236624 [Eh]
	 Opposite-Spin Energy      =      -0.1635298870701045 [Eh]
	 Correlation Energy        =      -0.2182017091937669 [Eh]
	 Total Energy              =     -76.2636221176769880 [Eh]

	 ================> DF-SCS-MP2 Energies <==================
	-----------------------------------------------------------
	 SCS Same-Spin Scale       =       0.3333333333333333 [-]
	 SCS Opposite-Spin Scale   =       1.2000000000000000 [-]
	 SCS Same-Spin Energy      =      -0.0182239407078875 [Eh]
	 SCS Opposite-Spin Energy  =      -0.1962358644841254 [Eh]
	 SCS Correlation Energy    =      -0.2144598051920129 [Eh]
	 SCS Total Energy          =     -76.2598802136752312 [Eh]
	-----------------------------------------------------------

*** Psi4 exiting successfully. Buy a developer a beer!
