                               Psi4 1.3.2 release

  ==> Input File <==

--------------------------------------------------------------------------
molecule {
0 1
O           -0.054496654631     0.038534940133     0.000000000000
H            0.873105012011     0.317390171806     0.000000000000
H           -0.008203555903    -0.928967635735     0.000000000000
}
memory 700MB
set_num_threads(1)
psi4_io.set_default_path("/scratch/bdw2292")
set freeze_core True
E, wfn = energy('mp2/6-311++G(2d,2p)',return_wfn=True)
oeprop(wfn,"DIPOLE","GRID_ESP")
clean()
--------------------------------------------------------------------------

    Molecular point group: cs

    Geometry (in Angstrom), charge = 0, multiplicity = 1:

       Center              X                  Y                   Z               Mass
    ------------   -----------------  -----------------  -----------------  -----------------
         O           -0.054496654631     0.038534940133     0.000000000000    15.994914619570
         H            0.873105012011     0.317390171806     0.000000000000     1.007825032230
         H           -0.008203555903    -0.928967635735     0.000000000000     1.007825032230

  Charge       = 0
  Multiplicity = 1
  Basis Set: 6-311++G(2D,2P)
    Blend: 6-311++G(2D,2P)
  Basis Set: (6-311++G(2D,2P) AUX)
    Blend: AUG-CC-PVTZ-JKFIT

    Orbital Energies [Eh]
    ---------------------

    Doubly Occupied:

       1Ap   -20.568987     2Ap    -1.348867     3Ap    -0.712412
       4Ap    -0.584666     1App   -0.509057

  @DF-RHF Final Energy:   -76.05506941012111

   => Energetics <=

    Nuclear Repulsion Energy =              9.0878924796372900
    One-Electron Energy =                -122.8379460521296949
    Two-Electron Energy =                  37.6949841623713056
    Total Energy =                        -76.0550694101210922
  Basis Set: (6-311++G(2D,2P) AUX)
    Blend: AUG-CC-PVTZ-RI
	 Reference Energy          =     -76.0550694101211064 [Eh]
	 Singles Energy            =      -0.0000000000000000 [Eh]
	 Same-Spin Energy          =      -0.0608738814257957 [Eh]
	 Opposite-Spin Energy      =      -0.1801098299924426 [Eh]
	 Correlation Energy        =      -0.2409837114182382 [Eh]
	 Total Energy              =     -76.2960531215393445 [Eh]

	 ================> DF-SCS-MP2 Energies <==================
	-----------------------------------------------------------
	 SCS Same-Spin Scale       =       0.3333333333333333 [-]
	 SCS Opposite-Spin Scale   =       1.2000000000000000 [-]
	 SCS Same-Spin Energy      =      -0.0202912938085986 [Eh]
	 SCS Opposite-Spin Energy  =      -0.2161317959909311 [Eh]
	 SCS Correlation Energy    =      -0.2364230897995296 [Eh]
	 SCS Total Energy          =     -76.2914924999206363 [Eh]
	-----------------------------------------------------------

  Dipole Moment: [D]
     X:     1.6981      Y:    -1.2008      Z:     0.0000     Total:     2.0798

*** Psi4 exiting successfully. Buy a developer a beer!
