                               Psi4 1.3.2 release

  ==> Input File <==

--------------------------------------------------------------------------
molecule {
0 1
C            0.000006028363     0.667512769343     0.000000000000
C           -0.000006144756    -0.667512709957     0.000000000000
H           -0.922878823748     1.237507144535     0.000000000000
H            0.922902133697     1.237492284948     0.000000000000
H            0.922878351027    -1.237508377014     0.000000000000
H           -0.922900275105    -1.237491759570     0.000000000000
}
memory 700MB
set_num_threads(1)
psi4_io.set_default_path("/scratch/bdw2292")
set freeze_core True
E, wfn = energy('mp2/6-311G**',return_wfn=True)
gdma(wfn)
fchk(wfn, "ethene-dma.fchk")
clean()
--------------------------------------------------------------------------

    Molecular point group: cs

    Geometry (in Angstrom), charge = 0, multiplicity = 1:

       Center              X                  Y                   Z               Mass
    ------------   -----------------  -----------------  -----------------  -----------------
         C            0.000006028363     0.667512769343     0.000000000000    12.000000000000
         C           -0.000006144756    -0.667512709957     0.000000000000    12.000000000000
         H           -0.922878823748     1.237507144535     0.000000000000     1.007825032230
         H            0.922902133697     1.237492284948     0.000000000000     1.007825032230
         H            0.922878351027    -1.237508377014     0.000000000000     1.007825032230
         H           -0.922900275105    -1.237491759570     0.000000000000     1.007825032230

  Charge       = 0
  Multiplicity = 1
  Basis Set: 6-311G**
    Blend: 6-311G**
  Basis Set: (6-311G** AUX)
    Blend: CC-PVTZ-JKFIT

    Orbital Energies [Eh]
    ---------------------

    Doubly Occupied:

       1Ap   -11.230029     2Ap   -11.228340     3Ap    -1.030911
       4Ap    -0.790911     5Ap    -0.639976     6Ap    -0.586183
       7Ap    -0.504708     1App   -0.374784

  @DF-RHF Final Energy:   -78.05407649483740

   => Energetics <=

    Nuclear Repulsion Energy =             33.3215997340298529
    One-Electron Energy =                -169.9796694379045050
    Two-Electron Energy =                  58.6039932090372488
    Total Energy =                        -78.0540764948374033

  Dipole Moment: [D]
     X:    -0.0000      Y:    -0.0000      Z:     0.0000     Total:     0.0000

  Basis Set: (6-311G** AUX)
    Blend: CC-PVTZ-RI
	 Reference Energy          =     -78.0540764948374033 [Eh]
	 Singles Energy            =      -0.0000000000000000 [Eh]
	 Same-Spin Energy          =      -0.0634989128864894 [Eh]
	 Opposite-Spin Energy      =      -0.2266479043051457 [Eh]
	 Correlation Energy        =      -0.2901468171916350 [Eh]
	 Total Energy              =     -78.3442233120290439 [Eh]

	 ================> DF-SCS-MP2 Energies <==================
	-----------------------------------------------------------
	 SCS Same-Spin Scale       =       0.3333333333333333 [-]
	 SCS Opposite-Spin Scale   =       1.2000000000000000 [-]
	 SCS Same-Spin Energy      =      -0.0211663042954965 [Eh]
	 SCS Opposite-Spin Energy  =      -0.2719774851661748 [Eh]
	 SCS Correlation Energy    =      -0.2931437894616713 [Eh]
	 SCS Total Energy          =     -78.3472202842990697 [Eh]
	-----------------------------------------------------------

*** Psi4 exiting successfully. Buy a developer a beer!
